# vtk DataFile Version 2.0
generated by CFD-lab course output (written by Tobias Neckel) 
ASCII

DATASET STRUCTURED_GRID
DIMENSIONS  51 51 1 
POINTS 2601 float

0.000000 0.000000 0
0.020000 0.000000 0
0.040000 0.000000 0
0.060000 0.000000 0
0.080000 0.000000 0
0.100000 0.000000 0
0.120000 0.000000 0
0.140000 0.000000 0
0.160000 0.000000 0
0.180000 0.000000 0
0.200000 0.000000 0
0.220000 0.000000 0
0.240000 0.000000 0
0.260000 0.000000 0
0.280000 0.000000 0
0.300000 0.000000 0
0.320000 0.000000 0
0.340000 0.000000 0
0.360000 0.000000 0
0.380000 0.000000 0
0.400000 0.000000 0
0.420000 0.000000 0
0.440000 0.000000 0
0.460000 0.000000 0
0.480000 0.000000 0
0.500000 0.000000 0
0.520000 0.000000 0
0.540000 0.000000 0
0.560000 0.000000 0
0.580000 0.000000 0
0.600000 0.000000 0
0.620000 0.000000 0
0.640000 0.000000 0
0.660000 0.000000 0
0.680000 0.000000 0
0.700000 0.000000 0
0.720000 0.000000 0
0.740000 0.000000 0
0.760000 0.000000 0
0.780000 0.000000 0
0.800000 0.000000 0
0.820000 0.000000 0
0.840000 0.000000 0
0.860000 0.000000 0
0.880000 0.000000 0
0.900000 0.000000 0
0.920000 0.000000 0
0.940000 0.000000 0
0.960000 0.000000 0
0.980000 0.000000 0
1.000000 0.000000 0
0.000000 0.020000 0
0.020000 0.020000 0
0.040000 0.020000 0
0.060000 0.020000 0
0.080000 0.020000 0
0.100000 0.020000 0
0.120000 0.020000 0
0.140000 0.020000 0
0.160000 0.020000 0
0.180000 0.020000 0
0.200000 0.020000 0
0.220000 0.020000 0
0.240000 0.020000 0
0.260000 0.020000 0
0.280000 0.020000 0
0.300000 0.020000 0
0.320000 0.020000 0
0.340000 0.020000 0
0.360000 0.020000 0
0.380000 0.020000 0
0.400000 0.020000 0
0.420000 0.020000 0
0.440000 0.020000 0
0.460000 0.020000 0
0.480000 0.020000 0
0.500000 0.020000 0
0.520000 0.020000 0
0.540000 0.020000 0
0.560000 0.020000 0
0.580000 0.020000 0
0.600000 0.020000 0
0.620000 0.020000 0
0.640000 0.020000 0
0.660000 0.020000 0
0.680000 0.020000 0
0.700000 0.020000 0
0.720000 0.020000 0
0.740000 0.020000 0
0.760000 0.020000 0
0.780000 0.020000 0
0.800000 0.020000 0
0.820000 0.020000 0
0.840000 0.020000 0
0.860000 0.020000 0
0.880000 0.020000 0
0.900000 0.020000 0
0.920000 0.020000 0
0.940000 0.020000 0
0.960000 0.020000 0
0.980000 0.020000 0
1.000000 0.020000 0
0.000000 0.040000 0
0.020000 0.040000 0
0.040000 0.040000 0
0.060000 0.040000 0
0.080000 0.040000 0
0.100000 0.040000 0
0.120000 0.040000 0
0.140000 0.040000 0
0.160000 0.040000 0
0.180000 0.040000 0
0.200000 0.040000 0
0.220000 0.040000 0
0.240000 0.040000 0
0.260000 0.040000 0
0.280000 0.040000 0
0.300000 0.040000 0
0.320000 0.040000 0
0.340000 0.040000 0
0.360000 0.040000 0
0.380000 0.040000 0
0.400000 0.040000 0
0.420000 0.040000 0
0.440000 0.040000 0
0.460000 0.040000 0
0.480000 0.040000 0
0.500000 0.040000 0
0.520000 0.040000 0
0.540000 0.040000 0
0.560000 0.040000 0
0.580000 0.040000 0
0.600000 0.040000 0
0.620000 0.040000 0
0.640000 0.040000 0
0.660000 0.040000 0
0.680000 0.040000 0
0.700000 0.040000 0
0.720000 0.040000 0
0.740000 0.040000 0
0.760000 0.040000 0
0.780000 0.040000 0
0.800000 0.040000 0
0.820000 0.040000 0
0.840000 0.040000 0
0.860000 0.040000 0
0.880000 0.040000 0
0.900000 0.040000 0
0.920000 0.040000 0
0.940000 0.040000 0
0.960000 0.040000 0
0.980000 0.040000 0
1.000000 0.040000 0
0.000000 0.060000 0
0.020000 0.060000 0
0.040000 0.060000 0
0.060000 0.060000 0
0.080000 0.060000 0
0.100000 0.060000 0
0.120000 0.060000 0
0.140000 0.060000 0
0.160000 0.060000 0
0.180000 0.060000 0
0.200000 0.060000 0
0.220000 0.060000 0
0.240000 0.060000 0
0.260000 0.060000 0
0.280000 0.060000 0
0.300000 0.060000 0
0.320000 0.060000 0
0.340000 0.060000 0
0.360000 0.060000 0
0.380000 0.060000 0
0.400000 0.060000 0
0.420000 0.060000 0
0.440000 0.060000 0
0.460000 0.060000 0
0.480000 0.060000 0
0.500000 0.060000 0
0.520000 0.060000 0
0.540000 0.060000 0
0.560000 0.060000 0
0.580000 0.060000 0
0.600000 0.060000 0
0.620000 0.060000 0
0.640000 0.060000 0
0.660000 0.060000 0
0.680000 0.060000 0
0.700000 0.060000 0
0.720000 0.060000 0
0.740000 0.060000 0
0.760000 0.060000 0
0.780000 0.060000 0
0.800000 0.060000 0
0.820000 0.060000 0
0.840000 0.060000 0
0.860000 0.060000 0
0.880000 0.060000 0
0.900000 0.060000 0
0.920000 0.060000 0
0.940000 0.060000 0
0.960000 0.060000 0
0.980000 0.060000 0
1.000000 0.060000 0
0.000000 0.080000 0
0.020000 0.080000 0
0.040000 0.080000 0
0.060000 0.080000 0
0.080000 0.080000 0
0.100000 0.080000 0
0.120000 0.080000 0
0.140000 0.080000 0
0.160000 0.080000 0
0.180000 0.080000 0
0.200000 0.080000 0
0.220000 0.080000 0
0.240000 0.080000 0
0.260000 0.080000 0
0.280000 0.080000 0
0.300000 0.080000 0
0.320000 0.080000 0
0.340000 0.080000 0
0.360000 0.080000 0
0.380000 0.080000 0
0.400000 0.080000 0
0.420000 0.080000 0
0.440000 0.080000 0
0.460000 0.080000 0
0.480000 0.080000 0
0.500000 0.080000 0
0.520000 0.080000 0
0.540000 0.080000 0
0.560000 0.080000 0
0.580000 0.080000 0
0.600000 0.080000 0
0.620000 0.080000 0
0.640000 0.080000 0
0.660000 0.080000 0
0.680000 0.080000 0
0.700000 0.080000 0
0.720000 0.080000 0
0.740000 0.080000 0
0.760000 0.080000 0
0.780000 0.080000 0
0.800000 0.080000 0
0.820000 0.080000 0
0.840000 0.080000 0
0.860000 0.080000 0
0.880000 0.080000 0
0.900000 0.080000 0
0.920000 0.080000 0
0.940000 0.080000 0
0.960000 0.080000 0
0.980000 0.080000 0
1.000000 0.080000 0
0.000000 0.100000 0
0.020000 0.100000 0
0.040000 0.100000 0
0.060000 0.100000 0
0.080000 0.100000 0
0.100000 0.100000 0
0.120000 0.100000 0
0.140000 0.100000 0
0.160000 0.100000 0
0.180000 0.100000 0
0.200000 0.100000 0
0.220000 0.100000 0
0.240000 0.100000 0
0.260000 0.100000 0
0.280000 0.100000 0
0.300000 0.100000 0
0.320000 0.100000 0
0.340000 0.100000 0
0.360000 0.100000 0
0.380000 0.100000 0
0.400000 0.100000 0
0.420000 0.100000 0
0.440000 0.100000 0
0.460000 0.100000 0
0.480000 0.100000 0
0.500000 0.100000 0
0.520000 0.100000 0
0.540000 0.100000 0
0.560000 0.100000 0
0.580000 0.100000 0
0.600000 0.100000 0
0.620000 0.100000 0
0.640000 0.100000 0
0.660000 0.100000 0
0.680000 0.100000 0
0.700000 0.100000 0
0.720000 0.100000 0
0.740000 0.100000 0
0.760000 0.100000 0
0.780000 0.100000 0
0.800000 0.100000 0
0.820000 0.100000 0
0.840000 0.100000 0
0.860000 0.100000 0
0.880000 0.100000 0
0.900000 0.100000 0
0.920000 0.100000 0
0.940000 0.100000 0
0.960000 0.100000 0
0.980000 0.100000 0
1.000000 0.100000 0
0.000000 0.120000 0
0.020000 0.120000 0
0.040000 0.120000 0
0.060000 0.120000 0
0.080000 0.120000 0
0.100000 0.120000 0
0.120000 0.120000 0
0.140000 0.120000 0
0.160000 0.120000 0
0.180000 0.120000 0
0.200000 0.120000 0
0.220000 0.120000 0
0.240000 0.120000 0
0.260000 0.120000 0
0.280000 0.120000 0
0.300000 0.120000 0
0.320000 0.120000 0
0.340000 0.120000 0
0.360000 0.120000 0
0.380000 0.120000 0
0.400000 0.120000 0
0.420000 0.120000 0
0.440000 0.120000 0
0.460000 0.120000 0
0.480000 0.120000 0
0.500000 0.120000 0
0.520000 0.120000 0
0.540000 0.120000 0
0.560000 0.120000 0
0.580000 0.120000 0
0.600000 0.120000 0
0.620000 0.120000 0
0.640000 0.120000 0
0.660000 0.120000 0
0.680000 0.120000 0
0.700000 0.120000 0
0.720000 0.120000 0
0.740000 0.120000 0
0.760000 0.120000 0
0.780000 0.120000 0
0.800000 0.120000 0
0.820000 0.120000 0
0.840000 0.120000 0
0.860000 0.120000 0
0.880000 0.120000 0
0.900000 0.120000 0
0.920000 0.120000 0
0.940000 0.120000 0
0.960000 0.120000 0
0.980000 0.120000 0
1.000000 0.120000 0
0.000000 0.140000 0
0.020000 0.140000 0
0.040000 0.140000 0
0.060000 0.140000 0
0.080000 0.140000 0
0.100000 0.140000 0
0.120000 0.140000 0
0.140000 0.140000 0
0.160000 0.140000 0
0.180000 0.140000 0
0.200000 0.140000 0
0.220000 0.140000 0
0.240000 0.140000 0
0.260000 0.140000 0
0.280000 0.140000 0
0.300000 0.140000 0
0.320000 0.140000 0
0.340000 0.140000 0
0.360000 0.140000 0
0.380000 0.140000 0
0.400000 0.140000 0
0.420000 0.140000 0
0.440000 0.140000 0
0.460000 0.140000 0
0.480000 0.140000 0
0.500000 0.140000 0
0.520000 0.140000 0
0.540000 0.140000 0
0.560000 0.140000 0
0.580000 0.140000 0
0.600000 0.140000 0
0.620000 0.140000 0
0.640000 0.140000 0
0.660000 0.140000 0
0.680000 0.140000 0
0.700000 0.140000 0
0.720000 0.140000 0
0.740000 0.140000 0
0.760000 0.140000 0
0.780000 0.140000 0
0.800000 0.140000 0
0.820000 0.140000 0
0.840000 0.140000 0
0.860000 0.140000 0
0.880000 0.140000 0
0.900000 0.140000 0
0.920000 0.140000 0
0.940000 0.140000 0
0.960000 0.140000 0
0.980000 0.140000 0
1.000000 0.140000 0
0.000000 0.160000 0
0.020000 0.160000 0
0.040000 0.160000 0
0.060000 0.160000 0
0.080000 0.160000 0
0.100000 0.160000 0
0.120000 0.160000 0
0.140000 0.160000 0
0.160000 0.160000 0
0.180000 0.160000 0
0.200000 0.160000 0
0.220000 0.160000 0
0.240000 0.160000 0
0.260000 0.160000 0
0.280000 0.160000 0
0.300000 0.160000 0
0.320000 0.160000 0
0.340000 0.160000 0
0.360000 0.160000 0
0.380000 0.160000 0
0.400000 0.160000 0
0.420000 0.160000 0
0.440000 0.160000 0
0.460000 0.160000 0
0.480000 0.160000 0
0.500000 0.160000 0
0.520000 0.160000 0
0.540000 0.160000 0
0.560000 0.160000 0
0.580000 0.160000 0
0.600000 0.160000 0
0.620000 0.160000 0
0.640000 0.160000 0
0.660000 0.160000 0
0.680000 0.160000 0
0.700000 0.160000 0
0.720000 0.160000 0
0.740000 0.160000 0
0.760000 0.160000 0
0.780000 0.160000 0
0.800000 0.160000 0
0.820000 0.160000 0
0.840000 0.160000 0
0.860000 0.160000 0
0.880000 0.160000 0
0.900000 0.160000 0
0.920000 0.160000 0
0.940000 0.160000 0
0.960000 0.160000 0
0.980000 0.160000 0
1.000000 0.160000 0
0.000000 0.180000 0
0.020000 0.180000 0
0.040000 0.180000 0
0.060000 0.180000 0
0.080000 0.180000 0
0.100000 0.180000 0
0.120000 0.180000 0
0.140000 0.180000 0
0.160000 0.180000 0
0.180000 0.180000 0
0.200000 0.180000 0
0.220000 0.180000 0
0.240000 0.180000 0
0.260000 0.180000 0
0.280000 0.180000 0
0.300000 0.180000 0
0.320000 0.180000 0
0.340000 0.180000 0
0.360000 0.180000 0
0.380000 0.180000 0
0.400000 0.180000 0
0.420000 0.180000 0
0.440000 0.180000 0
0.460000 0.180000 0
0.480000 0.180000 0
0.500000 0.180000 0
0.520000 0.180000 0
0.540000 0.180000 0
0.560000 0.180000 0
0.580000 0.180000 0
0.600000 0.180000 0
0.620000 0.180000 0
[...]
POINT_DATA 2601 

VECTORS velocity float
0.000000 0.000000 0
0.000001 0.000000 0
0.000001 0.000000 0
0.000001 0.000000 0
0.000002 0.000000 0
0.000002 0.000000 0
0.000002 0.000000 0
0.000002 0.000000 0
0.000002 0.000000 0
0.000002 0.000000 0
0.000002 0.000000 0
0.000001 0.000000 0
0.000001 0.000000 0
0.000001 0.000000 0
0.000001 0.000000 0
0.000000 0.000000 0
0.000000 0.000000 0
0.000000 0.000000 0
-0.000000 0.000000 0
-0.000000 0.000000 0
-0.000000 0.000000 0
-0.000001 0.000000 0
-0.000001 0.000000 0
-0.000001 0.000000 0
-0.000001 0.000000 0
-0.000001 0.000000 0
-0.000001 0.000000 0
-0.000001 0.000000 0
-0.000001 0.000000 0
-0.000001 0.000000 0
-0.000001 0.000000 0
-0.000001 0.000000 0
-0.000001 0.000000 0
-0.000001 0.000000 0
-0.000001 0.000000 0
-0.000000 0.000000 0
-0.000000 0.000000 0
-0.000000 0.000000 0
0.000000 0.000000 0
0.000000 0.000000 0
0.000000 0.000000 0
0.000001 0.000000 0
0.000001 0.000000 0
0.000001 0.000000 0
0.000001 0.000000 0
0.000000 0.000000 0
-0.000000 0.000000 0
-0.000001 0.000000 0
-0.000001 0.000000 0
-0.000002 0.000000 0
0.000000 0.000000 0
0.000000 0.000001 0
0.001627 0.001635 0
0.001530 0.001903 0
0.001221 0.001928 0
0.000815 0.001923 0
0.000361 0.001919 0
-0.000117 0.001916 0
-0.000604 0.001910 0
-0.001089 0.001902 0
-0.001563 0.001893 0
-0.002022 0.001881 0
-0.002463 0.001869 0
-0.002883 0.001857 0
-0.003281 0.001844 0
-0.003656 0.001830 0
-0.004007 0.001817 0
-0.004333 0.001803 0
-0.004634 0.001789 0
-0.004910 0.001774 0
-0.005159 0.001760 0
-0.005380 0.001744 0
-0.005574 0.001729 0
-0.005739 0.001713 0
-0.005876 0.001697 0
-0.005983 0.001680 0
-0.006061 0.001664 0
-0.006110 0.001647 0
-0.006128 0.001631 0
-0.006118 0.001615 0
-0.006078 0.001599 0
-0.006010 0.001583 0
-0.005915 0.001568 0
-0.005792 0.001553 0
-0.005644 0.001539 0
-0.005473 0.001526 0
-0.005279 0.001514 0
-0.005066 0.001504 0
-0.004836 0.001496 0
-0.004593 0.001490 0
-0.004342 0.001488 0
-0.004090 0.001490 0
-0.003844 0.001499 0
-0.003616 0.001517 0
-0.003420 0.001548 0
-0.003277 0.001600 0
-0.003211 0.001681 0
-0.003249 0.001804 0
-0.003408 0.001958 0
-0.003646 0.002022 0
-0.003726 0.001331 0
0.000000 0.000000 0
0.000000 0.000000 0
0.001775 0.001726 0
0.001874 0.002459 0
0.001576 0.002768 0
0.001025 0.002913 0
0.000325 0.002986 0
-0.000460 0.003019 0
-0.001285 0.003025 0
-0.002122 0.003012 0
-0.002951 0.002987 0
-0.003761 0.002953 0
-0.004542 0.002914 0
-0.005290 0.002871 0
-0.005999 0.002826 0
-0.006669 0.002779 0
-0.007296 0.002731 0
-0.007881 0.002681 0
-0.008419 0.002630 0
-0.008912 0.002578 0
-0.009357 0.002524 0
-0.009753 0.002469 0
-0.010098 0.002412 0
-0.010393 0.002355 0
-0.010636 0.002297 0
-0.010827 0.002238 0
-0.010965 0.002179 0
-0.011051 0.002120 0
-0.011083 0.002061 0
-0.011064 0.002003 0
-0.010992 0.001946 0
-0.010870 0.001890 0
-0.010699 0.001835 0
-0.010480 0.001783 0
-0.010216 0.001734 0
-0.009909 0.001688 0
-0.009563 0.001646 0
-0.009182 0.001610 0
-0.008771 0.001581 0
-0.008336 0.001560 0
-0.007885 0.001550 0
-0.007428 0.001555 0
-0.006976 0.001579 0
-0.006544 0.001629 0
-0.006151 0.001714 0
-0.005815 0.001844 0
-0.005554 0.002025 0
-0.005373 0.002250 0
-0.005241 0.002450 0
-0.005055 0.002371 0
-0.004632 0.001298 0
0.000000 0.000000 0
0.000000 -0.000000 0
0.001672 0.001815 0
0.001785 0.002952 0
0.001491 0.003627 0
0.000874 0.004024 0
0.000036 0.004253 0
-0.000939 0.004374 0
-0.001991 0.004422 0
-0.003076 0.004419 0
-0.004163 0.004382 0
-0.005232 0.004322 0
-0.006269 0.004247 0
-0.007265 0.004163 0
-0.008213 0.004073 0
-0.009109 0.003977 0
-0.009950 0.003878 0
-0.010732 0.003776 0
-0.011455 0.003670 0
-0.012115 0.003561 0
-0.012711 0.003450 0
-0.013240 0.003336 0
-0.013703 0.003219 0
-0.014097 0.003100 0
-0.014422 0.002980 0
-0.014676 0.002859 0
-0.014859 0.002737 0
-0.014972 0.002615 0
-0.015014 0.002493 0
-0.014986 0.002373 0
-0.014889 0.002255 0
-0.014723 0.002139 0
-0.014492 0.002027 0
-0.014197 0.001919 0
-0.013842 0.001818 0
-0.013429 0.001723 0
-0.012963 0.001637 0
-0.012450 0.001562 0
-0.011894 0.001500 0
-0.011304 0.001454 0
-0.010689 0.001429 0
-0.010059 0.001431 0
-0.009425 0.001465 0
-0.008801 0.001542 0
-0.008202 0.001669 0
-0.007637 0.001853 0
-0.007111 0.002089 0
-0.006609 0.002340 0
-0.006088 0.002490 0
-0.005478 0.002263 0
-0.004756 0.001125 0
0.000000 0.000000 0
0.000000 -0.000001 0
0.001563 0.001994 0
0.001595 0.003490 0
0.001247 0.004529 0
0.000565 0.005217 0
-0.000368 0.005648 0
-0.001471 0.005896 0
-0.002677 0.006011 0
-0.003934 0.006034 0
-0.005205 0.005993 0
-0.006462 0.005909 0
-0.007687 0.005796 0
-0.008868 0.005664 0
-0.009994 0.005519 0
-0.011060 0.005365 0
-0.012061 0.005204 0
-0.012994 0.005036 0
-0.013855 0.004862 0
-0.014642 0.004683 0
-0.015352 0.004499 0
-0.015983 0.004311 0
-0.016534 0.004119 0
-0.017002 0.003923 0
-0.017388 0.003725 0
-0.017689 0.003526 0
-0.017906 0.003325 0
-0.018038 0.003125 0
-0.018085 0.002925 0
-0.018049 0.002727 0
-0.017930 0.002533 0
-0.017730 0.002343 0
-0.017451 0.002159 0
-0.017096 0.001982 0
-0.016668 0.001815 0
-0.016171 0.001659 0
-0.015610 0.001516 0
-0.014990 0.001391 0
-0.014317 0.001285 0
-0.013600 0.001204 0
-0.012847 0.001154 0
-0.012066 0.001140 0
-0.011269 0.001172 0
-0.010465 0.001256 0
-0.009663 0.001400 0
-0.008867 0.001603 0
-0.008074 0.001847 0
-0.007268 0.002077 0
-0.006426 0.002168 0
-0.005541 0.001888 0
-0.004693 0.000888 0
0.000000 0.000000 0
0.000000 -0.000001 0
0.001482 0.002273 0
0.001412 0.004118 0
0.000978 0.005506 0
0.000220 0.006488 0
-0.000796 0.007139 0
-0.001995 0.007533 0
-0.003312 0.007735 0
-0.004692 0.007796 0
-0.006093 0.007759 0
-0.007486 0.007654 0
-0.008848 0.007502 0
-0.010163 0.007319 0
-0.011421 0.007115 0
-0.012613 0.006894 0
-0.013734 0.006662 0
-0.014779 0.006419 0
-0.015744 0.006167 0
-0.016625 0.005908 0
-0.017420 0.005640 0
-0.018127 0.005367 0
-0.018743 0.005088 0
-0.019266 0.004804 0
-0.019696 0.004516 0
-0.020032 0.004226 0
-0.020272 0.003935 0
-0.020417 0.003644 0
-0.020467 0.003354 0
-0.020423 0.003068 0
-0.020285 0.002786 0
-0.020057 0.002510 0
-0.019739 0.002243 0
-0.019335 0.001986 0
-0.018849 0.001742 0
-0.018283 0.001514 0
-0.017644 0.001305 0
-0.016937 0.001119 0
-0.016167 0.000960 0
-0.015343 0.000833 0
-0.014471 0.000745 0
-0.013559 0.000703 0
-0.012615 0.000714 0
-0.011647 0.000785 0
-0.010660 0.000920 0
-0.009656 0.001113 0
-0.008633 0.001339 0
-0.007587 0.001542 0
-0.006525 0.001612 0
-0.005487 0.001379 0
-0.004597 0.000632 0
0.000000 0.000000 0
0.000000 -0.000002 0
0.001426 0.002636 0
0.001263 0.004843 0
0.000737 0.006571 0
-0.000104 0.007841 0
-0.001199 0.008713 0
-0.002480 0.009261 0
-0.003882 0.009557 0
-0.005354 0.009665 0
-0.006852 0.009637 0
-0.008344 0.009513 0
-0.009806 0.009323 0
-0.011221 0.009087 0
-0.012576 0.008819 0
-0.013862 0.008528 0
-0.015072 0.008219 0
-0.016200 0.007895 0
-0.017242 0.007557 0
-0.018194 0.007209 0
-0.019053 0.006850 0
-0.019815 0.006483 0
-0.020480 0.006108 0
-0.021044 0.005727 0
-0.021506 0.005340 0
-0.021866 0.004951 0
-0.022123 0.004560 0
-0.022276 0.004169 0
-0.022325 0.003780 0
-0.022273 0.003395 0
-0.022119 0.003017 0
-0.021866 0.002646 0
-0.021515 0.002287 0
-0.021071 0.001941 0
-0.020535 0.001613 0
-0.019913 0.001304 0
-0.019208 0.001019 0
-0.018427 0.000763 0
-0.017574 0.000541 0
-0.016657 0.000357 0
-0.015681 0.000219 0
-0.014653 0.000135 0
-0.013581 0.000110 0
-0.012468 0.000150 0
-0.011321 0.000258 0
-0.010143 0.000425 0
-0.008940 0.000628 0
-0.007724 0.000819 0
-0.006523 0.000917 0
-0.005407 0.000810 0
-0.004510 0.000375 0
0.000000 0.000000 0
0.000000 -0.000002 0
0.001386 0.003064 0
0.001146 0.005656 0
0.000535 0.007723 0
-0.000389 0.009274 0
-0.001560 0.010364 0
-0.002914 0.011066 0
-0.004390 0.011458 0
-0.005936 0.011615 0
-0.007509 0.011599 0
-0.009077 0.011457 0
-0.010616 0.011229 0
-0.012107 0.010939 0
-0.013536 0.010606 0
-0.014894 0.010240 0
-0.016171 0.009850 0
-0.017363 0.009439 0
-0.018464 0.009011 0
-0.019469 0.008568 0
-0.020376 0.008111 0
-0.021181 0.007643 0
-0.021881 0.007166 0
-0.022476 0.006680 0
-0.022962 0.006188 0
-0.023339 0.005692 0
-0.023607 0.005194 0
-0.023764 0.004696 0
-0.023812 0.004201 0
-0.023750 0.003711 0
-0.023581 0.003228 0
-0.023306 0.002756 0
-0.022926 0.002297 0
-0.022446 0.001855 0
-0.021868 0.001434 0
-0.021195 0.001037 0
-0.020433 0.000669 0
-0.019587 0.000335 0
-0.018661 0.000039 0
-0.017661 -0.000211 0
-0.016593 -0.000409 0
-0.015463 -0.000548 0
-0.014277 -0.000622 0
-0.013040 -0.000625 0
-0.011759 -0.000555 0
-0.010443 -0.000418 0
-0.009105 -0.000231 0
-0.007770 -0.000026 0
-0.006486 0.000145 0
-0.005333 0.000216 0
-0.004442 0.000125 0
0.000000 0.000000 0
0.000000 -0.000002 0
0.001358 0.003542 0
0.001055 0.006544 0
0.000368 0.008955 0
-0.000634 0.010786 0
-0.001880 0.012088 0
-0.003304 0.012940 0
-0.004847 0.013428 0
-0.006458 0.013634 0
-0.008096 0.013628 0
-0.009728 0.013470 0
-0.011330 0.013202 0
-0.012882 0.012857 0
-0.014371 0.012456 0
-0.015786 0.012013 0
-0.017118 0.011538 0
-0.018360 0.011037 0
-0.019507 0.010513 0
-0.020555 0.009971 0
-0.021500 0.009411 0
-0.022338 0.008838 0
-0.023067 0.008252 0
-0.023684 0.007657 0
-0.024189 0.007054 0
-0.024579 0.006445 0
-0.024853 0.005834 0
-0.025013 0.005224 0
-0.025057 0.004616 0
-0.024986 0.004014 0
-0.024802 0.003421 0
-0.024506 0.002841 0
-0.024100 0.002277 0
-0.023586 0.001732 0
-0.022969 0.001212 0
-0.022251 0.000719 0
-0.021436 0.000261 0
-0.020530 -0.000160 0
-0.019537 -0.000536 0
-0.018462 -0.000861 0
-0.017310 -0.001129 0
-0.016088 -0.001332 0
-0.014801 -0.001464 0
-0.013457 -0.001518 0
-0.012065 -0.001490 0
-0.010638 -0.001380 0
-0.009200 -0.001195 0
-0.007784 -0.000950 0
-0.006447 -0.000670 0
-0.005276 -0.000385 0
-0.004392 -0.000119 0
0.000000 0.000000 0
0.000000 -0.000002 0
0.001336 0.004062 0
0.000981 0.007496 0
0.000226 0.010261 0
-0.000848 0.012371 0
-0.002167 0.013884 0
-0.003660 0.014883 0
-0.005269 0.015462 0
-0.006943 0.015714 0
-0.008642 0.015718 0
-0.010333 0.015541 0
-0.011991 0.015233 0
-0.013598 0.014830 0
-0.015139 0.014359 0
-0.016603 0.013836 0
-0.017982 0.013274 0
-0.019267 0.012678 0
-0.020455 0.012056 0
-0.021539 0.011410 0
-0.022515 0.010744 0
-0.023381 0.010060 0
-0.024134 0.009362 0
-0.024770 0.008651 0
-0.025289 0.007932 0
-0.025689 0.007207 0
-0.025969 0.006478 0
-0.026129 0.005749 0
-0.026168 0.005024 0
-0.026088 0.004306 0
-0.025888 0.003597 0
-0.025572 0.002903 0
-0.025140 0.002227 0
-0.024595 0.001574 0
-0.023940 0.000948 0
-0.023178 0.000354 0
-0.022314 -0.000202 0
-0.021351 -0.000715 0
-0.020293 -0.001179 0
-0.019147 -0.001588 0
-0.017917 -0.001933 0
-0.016610 -0.002207 0
-0.015232 -0.002403 0
-0.013794 -0.002511 0
-0.012307 -0.002524 0
-0.010790 -0.002434 0
-0.009272 -0.002236 0
-0.007795 -0.001929 0
-0.006422 -0.001512 0
-0.005239 -0.000989 0
-0.004360 -0.000357 0
0.000000 0.000000 0
0.000000 -0.000002 0
0.001318 0.004614 0
0.000918 0.008504 0
0.000100 0.011634 0
-0.001044 0.014028 0
-0.002434 0.015750 0
-0.003998 0.016893 0
-0.005675 0.017561 0
-0.007413 0.017856 0
-0.009173 0.017867 0
-0.010922 0.017668 0
-0.012636 0.017317 0
-0.014296 0.016855 0
-0.015887 0.016311 0
-0.017398 0.015705 0
-0.018820 0.015052 0
-0.020147 0.014359 0
-0.021371 0.013634 0
-0.022488 0.012881 0
-0.023494 0.012104 0
-0.024385 0.011306 0
-0.025159 0.010491 0
-0.025813 0.009662 0
-0.026344 0.008822 0
-0.026752 0.007975 0
-0.027036 0.007124 0
-0.027195 0.006272 0
-0.027229 0.005425 0
-0.027139 0.004584 0
-0.026924 0.003755 0
-0.026587 0.002942 0
-0.026129 0.002149 0
-0.025553 0.001382 0
-0.024861 0.000644 0
-0.024056 -0.000057 0
-0.023142 -0.000718 0
-0.022122 -0.001331 0
-0.021002 -0.001890 0
-0.019787 -0.002387 0
-0.018481 -0.002816 0
-0.017093 -0.003167 0
-0.015631 -0.003431 0
-0.014105 -0.003594 0
-0.012533 -0.003644 0
-0.010937 -0.003565 0
-0.009351 -0.003340 0
-0.007822 -0.002950 0
-0.006417 -0.002376 0
-0.005222 -0.001597 0
-0.004343 -0.000593 0
0.000000 0.000000 0
0.000000 -0.000002 0
0.001302 0.005197 0
0.000860 0.009563 0
-0.000017 0.013072 0
-0.001231 0.015755 0
-0.002694 0.017687 0
-0.004331 0.018973 0
-0.006079 0.019727 0
-0.007887 0.020062 0
-0.009712 0.020077 0
-0.011522 0.019854 0
-0.013295 0.019456 0
-0.015009 0.018930 0
-0.016652 0.018311 0
-0.018211 0.017619 0
-0.019677 0.016872 0
-0.021044 0.016078 0
-0.022305 0.015247 0
-0.023455 0.014383 0
-0.024490 0.013491 0
-0.025406 0.012574 0
-0.026201 0.011638 0
-0.026871 0.010686 0
-0.027415 0.009722 0
-0.027831 0.008748 0
-0.028118 0.007771 0
-0.028276 0.006792 0
-0.028304 0.005817 0
-0.028203 0.004850 0
-0.027973 0.003895 0
-0.027615 0.002958 0
-0.027131 0.002043 0
-0.026522 0.001155 0
-0.025792 0.000300 0
-0.024943 -0.000515 0
-0.023978 -0.001286 0
-0.022902 -0.002005 0
-0.021718 -0.002665 0
-0.020433 -0.003259 0
-0.019053 -0.003777 0
-0.017585 -0.004209 0
-0.016040 -0.004541 0
-0.014431 -0.004759 0
-0.012777 -0.004843 0
-0.011106 -0.004766 0
-0.009455 -0.004501 0
-0.007876 -0.004013 0
-0.006437 -0.003263 0
-0.005223 -0.002214 0
-0.004339 -0.000829 0
0.000000 0.000000 0
0.000000 -0.000002 0
0.001286 0.005808 0
0.000803 0.010672 0
-0.000133 0.014574 0
-0.001417 0.017554 0
-0.002957 0.019700 0
-0.004672 0.021128 0
-0.006497 0.021966 0
-0.008379 0.022338 0
-0.010275 0.022353 0
-0.012154 0.022101 0
-0.013989 0.021653 0
-0.015763 0.021061 0
-0.017461 0.020362 0
-0.019071 0.019580 0
-0.020584 0.018735 0
-0.021994 0.017837 0
-0.023293 0.016895 0
-0.024478 0.015916 0
-0.025543 0.014904 0
-0.026485 0.013866 0
-0.027301 0.012805 0
-0.027988 0.011725 0
-0.028544 0.010631 0
-0.028969 0.009528 0
-0.029260 0.008418 0
-0.029416 0.007308 0
-0.029438 0.006201 0
-0.029326 0.005102 0
-0.029080 0.004017 0
-0.028700 0.002950 0
-0.028189 0.001906 0
-0.027547 0.000893 0
-0.026777 -0.000085 0
-0.025882 -0.001022 0
-0.024865 -0.001909 0
-0.023730 -0.002741 0
-0.022482 -0.003508 0
-0.021125 -0.004203 0
-0.019668 -0.004815 0
-0.018119 -0.005331 0
-0.016490 -0.005735 0
-0.014796 -0.006007 0
-0.013061 -0.006119 0
-0.011313 -0.006038 0
-0.009594 -0.005721 0
-0.007960 -0.005119 0
-0.006480 -0.004179 0
-0.005241 -0.002845 0
-0.004346 -0.001069 0
0.000000 0.000000 0
0.000000 -0.000002 0
0.001270 0.006447 0
0.000745 0.011832 0
-0.000252 0.016142 0
-0.001610 0.019429 0
-0.003231 0.021792 0
-0.005031 0.023363 0
-0.006940 0.024284 0
-0.008904 0.024690 0
-0.010879 0.024701 0
-0.012832 0.024417 0
-0.014737 0.023915 0
-0.016576 0.023252 0
-0.018335 0.022468 0
-0.020001 0.021593 0
-0.021565 0.020645 0
-0.023021 0.019637 0
-0.024363 0.018581 0
-0.025584 0.017482 0
-0.026681 0.016347 0
-0.027651 0.015182 0
-0.028489 0.013991 0
-0.029195 0.012780 0
-0.029765 0.011552 0
-0.030198 0.010313 0
-0.030493 0.009068 0
-0.030649 0.007821 0
-0.030665 0.006577 0
-0.030541 0.005341 0
-0.030278 0.004119 0
-0.029876 0.002917 0
-0.029336 0.001739 0
-0.028660 0.000593 0
-0.027849 -0.000515 0
-0.026907 -0.001578 0
-0.025835 -0.002589 0
-0.024638 -0.003539 0
-0.023322 -0.004421 0
-0.021891 -0.005223 0
-0.020353 -0.005933 0
-0.018719 -0.006537 0
-0.017002 -0.007015 0
-0.015219 -0.007339 0
-0.013397 -0.007477 0
-0.011567 -0.007383 0
-0.009774 -0.007005 0
-0.008076 -0.006277 0
-0.006547 -0.005132 0
-0.005275 -0.003499 0
-0.004362 -0.001316 0
0.000000 0.000000 0
0.000000 -0.000002 0
0.001253 0.007116 0
0.000684 0.013044 0
-0.000378 0.017779 0
-0.001815 0.021383 0
-0.003524 0.023970 0
-0.005416 0.025687 0
-0.007417 0.026689 0
-0.009472 0.027126 0
-0.011534 0.027130 0
-0.013569 0.026809 0
-0.015552 0.026247 0
-0.017464 0.025508 0
-0.019289 0.024636 0
-0.021017 0.023661 0
-0.022638 0.022605 0
-0.024144 0.021484 0
-0.025531 0.020307 0
-0.026793 0.019084 0
-0.027925 0.017821 0
-0.028924 0.016524 0
-0.029788 0.015199 0
-0.030513 0.013850 0
-0.031098 0.012484 0
-0.031541 0.011105 0
-0.031840 0.009719 0
-0.031996 0.008330 0
-0.032006 0.006943 0
-0.031871 0.005566 0
-0.031591 0.004202 0
-0.031166 0.002858 0
-0.030597 0.001540 0
-0.029885 0.000255 0
-0.029031 -0.000989 0
-0.028038 -0.002186 0
-0.026909 -0.003328 0
-0.025648 -0.004404 0
-0.024259 -0.005406 0
-0.022749 -0.006322 0
-0.021126 -0.007137 0
-0.019401 -0.007833 0
-0.017590 -0.008385 0
-0.015712 -0.008762 0
-0.013794 -0.008922 0
-0.011874 -0.008811 0
-0.009997 -0.008361 0
-0.008226 -0.007496 0
-0.006638 -0.006131 0
-0.005323 -0.004181 0
-0.004387 -0.001574 0
0.000000 0.000000 0
0.000000 -0.000002 0
0.001235 0.007817 0
0.000618 0.014312 0
-0.000514 0.019491 0
-0.002037 0.023424 0
-0.003842 0.026242 0
-0.005834 0.028106 0
-0.007937 0.029190 0
-0.010091 0.029656 0
-0.012249 0.029648 0
-0.014376 0.029285 0
-0.016446 0.028659 0
-0.018438 0.027838 0
-0.020337 0.026871 0
-0.022132 0.025791 0
-0.023815 0.024622 0
-0.025377 0.023380 0
-0.026813 0.022078 0
-0.028119 0.020725 0
-0.029289 0.019328 0
-0.030321 0.017894 0
-0.031211 0.016429 0
-0.031958 0.014939 0
-0.032559 0.013429 0
-0.033013 0.011905 0
-0.033318 0.010372 0
-0.033474 0.008836 0
-0.033479 0.007302 0
-0.033333 0.005776 0
-0.033036 0.004264 0
-0.032587 0.002772 0
-0.031988 0.001307 0
-0.031238 -0.000123 0
-0.030339 -0.001512 0
-0.029294 -0.002850 0
-0.028104 -0.004130 0
-0.026774 -0.005340 0
-0.025309 -0.006470 0
-0.023714 -0.007506 0
-0.022000 -0.008431 0
-0.020178 -0.009224 0
-0.018265 -0.009854 0
-0.016282 -0.010285 0
-0.014260 -0.010465 0
-0.012238 -0.010331 0
-0.010266 -0.009802 0
-0.008411 -0.008787 0
-0.006751 -0.007186 0
-0.005385 -0.004900 0
-0.004420 -0.001844 0
0.000000 0.000000 0
0.000000 -0.000002 0
0.001215 0.008552 0
0.000546 0.015643 0
-0.000663 0.021284 0
-0.002280 0.025560 0
-0.004188 0.028616 0
-0.006291 0.030632 0
-0.008506 0.031796 0
-0.010770 0.032288 0
-0.013035 0.032265 0
-0.015263 0.031855 0
-0.017427 0.031158 0
-0.019507 0.030249 0
-0.021488 0.029180 0
-0.023358 0.027988 0
-0.025107 0.026700 0
-0.026730 0.025332 0
-0.028220 0.023898 0
-0.029573 0.022409 0
-0.030784 0.020872 0
-0.031851 0.019296 0
-0.032771 0.017685 0
-0.033541 0.016048 0
-0.034160 0.014389 0
-0.034626 0.012714 0
-0.034938 0.011029 0
-0.035095 0.009340 0
-0.035095 0.007652 0
-0.034938 0.005972 0
-0.034624 0.004305 0
-0.034151 0.002659 0
-0.033521 0.001040 0
-0.032733 -0.000543 0
-0.031788 -0.002084 0
-0.030688 -0.003572 0
-0.029435 -0.004998 0
-0.028032 -0.006350 0
-0.026485 -0.007617 0
-0.024801 -0.008781 0
-0.022988 -0.009823 0
-0.021061 -0.010718 0
-0.019036 -0.011431 0
-0.016938 -0.011918 0
-0.014799 -0.012117 0
-0.012663 -0.011955 0
-0.010583 -0.011339 0
-0.008629 -0.010161 0
-0.006888 -0.008307 0
-0.005460 -0.005663 0
-0.004460 -0.002131 0
0.000000 0.000000 0
0.000000 -0.000002 0
0.001193 0.009324 0
0.000467 0.017040 0
-0.000826 0.023166 0
-0.002546 0.027799 0
-0.004569 0.031102 0
-0.006793 0.033273 0
-0.009131 0.034518 0
-0.011516 0.035034 0
-0.013897 0.034990 0
-0.016236 0.034527 0
-0.018505 0.033753 0
-0.020682 0.032749 0
-0.022751 0.031571 0
-0.024702 0.030260 0
-0.026525 0.028844 0
-0.028214 0.027343 0
-0.029762 0.025771 0
-0.031165 0.024139 0
-0.032421 0.022456 0
-0.033525 0.020730 0
-0.034476 0.018969 0
-0.035272 0.017178 0
-0.035910 0.015364 0
-0.036389 0.013533 0
-0.036709 0.011690 0
-0.036868 0.009842 0
-0.036864 0.007995 0
-0.036697 0.006154 0
-0.036366 0.004327 0
-0.035870 0.002519 0
-0.035209 0.000738 0
-0.034381 -0.001006 0
-0.033389 -0.002707 0
-0.032232 -0.004354 0
-0.030913 -0.005936 0
-0.029434 -0.007440 0
-0.027800 -0.008852 0
-0.026019 -0.010154 0
-0.024100 -0.011322 0
-0.022058 -0.012326 0
-0.019911 -0.013127 0
-0.017686 -0.013672 0
-0.015418 -0.013891 0
-0.013153 -0.013698 0
-0.010950 -0.012986 0
-0.008885 -0.011632 0
-0.007048 -0.009506 0
-0.005548 -0.006478 0
-0.004509 -0.002437 0
0.000000 0.000000 0
0.000000 -0.000002 0
0.001169 0.010138 0
0.000380 0.018511 0
-0.001005 0.025146 0
-0.002838 0.030153 0
-0.004989 0.033713 0
-0.007345 0.036042 0
-0.009818 0.037369 0
-0.012336 0.037904 0
-0.014846 0.037835 0
-0.017306 0.037312 0
-0.019689 0.036453 0
-0.021971 0.035345 0
-0.024137 0.034050 0
-0.026175 0.032612 0
-0.028077 0.031061 0
-0.029836 0.029418 0
-0.031446 0.027700 0
-0.032904 0.025918 0
-0.034207 0.024082 0
-0.035351 0.022201 0
-0.036335 0.020281 0
-0.037157 0.018331 0
-0.037816 0.016356 0
-0.038311 0.014363 0
-0.038640 0.012357 0
-0.038801 0.010345 0
-0.038795 0.008331 0