# vtk DataFile Version 2.0
generated by CFD-lab course output (written by Tobias Neckel) 
ASCII

DATASET STRUCTURED_GRID
DIMENSIONS  51 51 1 
POINTS 2601 float

0.000000 0.000000 0
0.020000 0.000000 0
0.040000 0.000000 0
0.060000 0.000000 0
0.080000 0.000000 0
0.100000 0.000000 0
0.120000 0.000000 0
0.140000 0.000000 0
0.160000 0.000000 0
0.180000 0.000000 0
0.200000 0.000000 0
0.220000 0.000000 0
0.240000 0.000000 0
0.260000 0.000000 0
0.280000 0.000000 0
0.300000 0.000000 0
0.320000 0.000000 0
0.340000 0.000000 0
0.360000 0.000000 0
0.380000 0.000000 0
0.400000 0.000000 0
0.420000 0.000000 0
0.440000 0.000000 0
0.460000 0.000000 0
0.480000 0.000000 0
0.500000 0.000000 0
0.520000 0.000000 0
0.540000 0.000000 0
0.560000 0.000000 0
0.580000 0.000000 0
0.600000 0.000000 0
0.620000 0.000000 0
0.640000 0.000000 0
0.660000 0.000000 0
0.680000 0.000000 0
0.700000 0.000000 0
0.720000 0.000000 0
0.740000 0.000000 0
0.760000 0.000000 0
0.780000 0.000000 0
0.800000 0.000000 0
0.820000 0.000000 0
0.840000 0.000000 0
0.860000 0.000000 0
0.880000 0.000000 0
0.900000 0.000000 0
0.920000 0.000000 0
0.940000 0.000000 0
0.960000 0.000000 0
0.980000 0.000000 0
1.000000 0.000000 0
0.000000 0.020000 0
0.020000 0.020000 0
0.040000 0.020000 0
0.060000 0.020000 0
0.080000 0.020000 0
0.100000 0.020000 0
0.120000 0.020000 0
0.140000 0.020000 0
0.160000 0.020000 0
0.180000 0.020000 0
0.200000 0.020000 0
0.220000 0.020000 0
0.240000 0.020000 0
0.260000 0.020000 0
0.280000 0.020000 0
0.300000 0.020000 0
0.320000 0.020000 0
0.340000 0.020000 0
0.360000 0.020000 0
0.380000 0.020000 0
0.400000 0.020000 0
0.420000 0.020000 0
0.440000 0.020000 0
0.460000 0.020000 0
0.480000 0.020000 0
0.500000 0.020000 0
0.520000 0.020000 0
0.540000 0.020000 0
0.560000 0.020000 0
0.580000 0.020000 0
0.600000 0.020000 0
0.620000 0.020000 0
0.640000 0.020000 0
0.660000 0.020000 0
0.680000 0.020000 0
0.700000 0.020000 0
0.720000 0.020000 0
0.740000 0.020000 0
0.760000 0.020000 0
0.780000 0.020000 0
0.800000 0.020000 0
0.820000 0.020000 0
0.840000 0.020000 0
0.860000 0.020000 0
0.880000 0.020000 0
0.900000 0.020000 0
0.920000 0.020000 0
0.940000 0.020000 0
0.960000 0.020000 0
0.980000 0.020000 0
1.000000 0.020000 0
0.000000 0.040000 0
0.020000 0.040000 0
0.040000 0.040000 0
0.060000 0.040000 0
0.080000 0.040000 0
0.100000 0.040000 0
0.120000 0.040000 0
0.140000 0.040000 0
0.160000 0.040000 0
0.180000 0.040000 0
0.200000 0.040000 0
0.220000 0.040000 0
0.240000 0.040000 0
0.260000 0.040000 0
0.280000 0.040000 0
0.300000 0.040000 0
0.320000 0.040000 0
0.340000 0.040000 0
0.360000 0.040000 0
0.380000 0.040000 0
0.400000 0.040000 0
0.420000 0.040000 0
0.440000 0.040000 0
0.460000 0.040000 0
0.480000 0.040000 0
0.500000 0.040000 0
0.520000 0.040000 0
0.540000 0.040000 0
0.560000 0.040000 0
0.580000 0.040000 0
0.600000 0.040000 0
0.620000 0.040000 0
0.640000 0.040000 0
0.660000 0.040000 0
0.680000 0.040000 0
0.700000 0.040000 0
0.720000 0.040000 0
0.740000 0.040000 0
0.760000 0.040000 0
0.780000 0.040000 0
0.800000 0.040000 0
0.820000 0.040000 0
0.840000 0.040000 0
0.860000 0.040000 0
0.880000 0.040000 0
0.900000 0.040000 0
0.920000 0.040000 0
0.940000 0.040000 0
0.960000 0.040000 0
0.980000 0.040000 0
1.000000 0.040000 0
0.000000 0.060000 0
0.020000 0.060000 0
0.040000 0.060000 0
0.060000 0.060000 0
0.080000 0.060000 0
0.100000 0.060000 0
0.120000 0.060000 0
0.140000 0.060000 0
0.160000 0.060000 0
0.180000 0.060000 0
0.200000 0.060000 0
0.220000 0.060000 0
0.240000 0.060000 0
0.260000 0.060000 0
0.280000 0.060000 0
0.300000 0.060000 0
0.320000 0.060000 0
0.340000 0.060000 0
0.360000 0.060000 0
0.380000 0.060000 0
0.400000 0.060000 0
0.420000 0.060000 0
0.440000 0.060000 0
0.460000 0.060000 0
0.480000 0.060000 0
0.500000 0.060000 0
0.520000 0.060000 0
0.540000 0.060000 0
0.560000 0.060000 0
0.580000 0.060000 0
0.600000 0.060000 0
0.620000 0.060000 0
0.640000 0.060000 0
0.660000 0.060000 0
0.680000 0.060000 0
0.700000 0.060000 0
0.720000 0.060000 0
0.740000 0.060000 0
0.760000 0.060000 0
0.780000 0.060000 0
0.800000 0.060000 0
0.820000 0.060000 0
0.840000 0.060000 0
0.860000 0.060000 0
0.880000 0.060000 0
0.900000 0.060000 0
0.920000 0.060000 0
0.940000 0.060000 0
0.960000 0.060000 0
0.980000 0.060000 0
1.000000 0.060000 0
0.000000 0.080000 0
0.020000 0.080000 0
0.040000 0.080000 0
0.060000 0.080000 0
0.080000 0.080000 0
0.100000 0.080000 0
0.120000 0.080000 0
0.140000 0.080000 0
0.160000 0.080000 0
0.180000 0.080000 0
0.200000 0.080000 0
0.220000 0.080000 0
0.240000 0.080000 0
0.260000 0.080000 0
0.280000 0.080000 0
0.300000 0.080000 0
0.320000 0.080000 0
0.340000 0.080000 0
0.360000 0.080000 0
0.380000 0.080000 0
0.400000 0.080000 0
0.420000 0.080000 0
0.440000 0.080000 0
0.460000 0.080000 0
0.480000 0.080000 0
0.500000 0.080000 0
0.520000 0.080000 0
0.540000 0.080000 0
0.560000 0.080000 0
0.580000 0.080000 0
0.600000 0.080000 0
0.620000 0.080000 0
0.640000 0.080000 0
0.660000 0.080000 0
0.680000 0.080000 0
0.700000 0.080000 0
0.720000 0.080000 0
0.740000 0.080000 0
0.760000 0.080000 0
0.780000 0.080000 0
0.800000 0.080000 0
0.820000 0.080000 0
0.840000 0.080000 0
0.860000 0.080000 0
0.880000 0.080000 0
0.900000 0.080000 0
0.920000 0.080000 0
0.940000 0.080000 0
0.960000 0.080000 0
0.980000 0.080000 0
1.000000 0.080000 0
0.000000 0.100000 0
0.020000 0.100000 0
0.040000 0.100000 0
0.060000 0.100000 0
0.080000 0.100000 0
0.100000 0.100000 0
0.120000 0.100000 0
0.140000 0.100000 0
0.160000 0.100000 0
0.180000 0.100000 0
0.200000 0.100000 0
0.220000 0.100000 0
0.240000 0.100000 0
0.260000 0.100000 0
0.280000 0.100000 0
0.300000 0.100000 0
0.320000 0.100000 0
0.340000 0.100000 0
0.360000 0.100000 0
0.380000 0.100000 0
0.400000 0.100000 0
0.420000 0.100000 0
0.440000 0.100000 0
0.460000 0.100000 0
0.480000 0.100000 0
0.500000 0.100000 0
0.520000 0.100000 0
0.540000 0.100000 0
0.560000 0.100000 0
0.580000 0.100000 0
0.600000 0.100000 0
0.620000 0.100000 0
0.640000 0.100000 0
0.660000 0.100000 0
0.680000 0.100000 0
0.700000 0.100000 0
0.720000 0.100000 0
0.740000 0.100000 0
0.760000 0.100000 0
0.780000 0.100000 0
0.800000 0.100000 0
0.820000 0.100000 0
0.840000 0.100000 0
0.860000 0.100000 0
0.880000 0.100000 0
0.900000 0.100000 0
0.920000 0.100000 0
0.940000 0.100000 0
0.960000 0.100000 0
0.980000 0.100000 0
1.000000 0.100000 0
0.000000 0.120000 0
0.020000 0.120000 0
0.040000 0.120000 0
0.060000 0.120000 0
0.080000 0.120000 0
0.100000 0.120000 0
0.120000 0.120000 0
0.140000 0.120000 0
0.160000 0.120000 0
0.180000 0.120000 0
0.200000 0.120000 0
0.220000 0.120000 0
0.240000 0.120000 0
0.260000 0.120000 0
0.280000 0.120000 0
0.300000 0.120000 0
0.320000 0.120000 0
0.340000 0.120000 0
0.360000 0.120000 0
0.380000 0.120000 0
0.400000 0.120000 0
0.420000 0.120000 0
0.440000 0.120000 0
0.460000 0.120000 0
0.480000 0.120000 0
0.500000 0.120000 0
0.520000 0.120000 0
0.540000 0.120000 0
0.560000 0.120000 0
0.580000 0.120000 0
0.600000 0.120000 0
0.620000 0.120000 0
0.640000 0.120000 0
0.660000 0.120000 0
0.680000 0.120000 0
0.700000 0.120000 0
0.720000 0.120000 0
0.740000 0.120000 0
0.760000 0.120000 0
0.780000 0.120000 0
0.800000 0.120000 0
0.820000 0.120000 0
0.840000 0.120000 0
0.860000 0.120000 0
0.880000 0.120000 0
0.900000 0.120000 0
0.920000 0.120000 0
0.940000 0.120000 0
0.960000 0.120000 0
0.980000 0.120000 0
1.000000 0.120000 0
0.000000 0.140000 0
0.020000 0.140000 0
0.040000 0.140000 0
0.060000 0.140000 0
0.080000 0.140000 0
0.100000 0.140000 0
0.120000 0.140000 0
0.140000 0.140000 0
0.160000 0.140000 0
0.180000 0.140000 0
0.200000 0.140000 0
0.220000 0.140000 0
0.240000 0.140000 0
0.260000 0.140000 0
0.280000 0.140000 0
0.300000 0.140000 0
0.320000 0.140000 0
0.340000 0.140000 0
0.360000 0.140000 0
0.380000 0.140000 0
0.400000 0.140000 0
0.420000 0.140000 0
0.440000 0.140000 0
0.460000 0.140000 0
0.480000 0.140000 0
0.500000 0.140000 0
0.520000 0.140000 0
0.540000 0.140000 0
0.560000 0.140000 0
0.580000 0.140000 0
0.600000 0.140000 0
0.620000 0.140000 0
0.640000 0.140000 0
0.660000 0.140000 0
0.680000 0.140000 0
0.700000 0.140000 0
0.720000 0.140000 0
0.740000 0.140000 0
0.760000 0.140000 0
0.780000 0.140000 0
0.800000 0.140000 0
0.820000 0.140000 0
0.840000 0.140000 0
0.860000 0.140000 0
0.880000 0.140000 0
0.900000 0.140000 0
0.920000 0.140000 0
0.940000 0.140000 0
0.960000 0.140000 0
0.980000 0.140000 0
1.000000 0.140000 0
0.000000 0.160000 0
0.020000 0.160000 0
0.040000 0.160000 0
0.060000 0.160000 0
0.080000 0.160000 0
0.100000 0.160000 0
0.120000 0.160000 0
0.140000 0.160000 0
0.160000 0.160000 0
0.180000 0.160000 0
0.200000 0.160000 0
0.220000 0.160000 0
0.240000 0.160000 0
0.260000 0.160000 0
0.280000 0.160000 0
0.300000 0.160000 0
0.320000 0.160000 0
0.340000 0.160000 0
0.360000 0.160000 0
0.380000 0.160000 0
0.400000 0.160000 0
0.420000 0.160000 0
0.440000 0.160000 0
0.460000 0.160000 0
0.480000 0.160000 0
0.500000 0.160000 0
0.520000 0.160000 0
0.540000 0.160000 0
0.560000 0.160000 0
0.580000 0.160000 0
0.600000 0.160000 0
0.620000 0.160000 0
0.640000 0.160000 0
0.660000 0.160000 0
0.680000 0.160000 0
0.700000 0.160000 0
0.720000 0.160000 0
0.740000 0.160000 0
0.760000 0.160000 0
0.780000 0.160000 0
0.800000 0.160000 0
0.820000 0.160000 0
0.840000 0.160000 0
0.860000 0.160000 0
0.880000 0.160000 0
0.900000 0.160000 0
0.920000 0.160000 0
0.940000 0.160000 0
0.960000 0.160000 0
0.980000 0.160000 0
1.000000 0.160000 0
0.000000 0.180000 0
0.020000 0.180000 0
0.040000 0.180000 0
0.060000 0.180000 0
0.080000 0.180000 0
0.100000 0.180000 0
0.120000 0.180000 0
0.140000 0.180000 0
0.160000 0.180000 0
0.180000 0.180000 0
0.200000 0.180000 0
0.220000 0.180000 0
0.240000 0.180000 0
0.260000 0.180000 0
0.280000 0.180000 0
0.300000 0.180000 0
0.320000 0.180000 0
0.340000 0.180000 0
0.360000 0.180000 0
0.380000 0.180000 0
0.400000 0.180000 0
0.420000 0.180000 0
0.440000 0.180000 0
0.460000 0.180000 0
0.480000 0.180000 0
0.500000 0.180000 0
0.520000 0.180000 0
0.540000 0.180000 0
0.560000 0.180000 0
0.580000 0.180000 0
0.600000 0.180000 0
0.620000 0.180000 0
[...]
POINT_DATA 2601 

VECTORS velocity float
0.000000 0.000000 0
0.000000 0.000000 0
0.000000 0.000000 0
0.000000 0.000000 0
0.000000 0.000000 0
0.000000 0.000000 0
0.000000 0.000000 0
0.000000 0.000000 0
0.000000 0.000000 0
0.000000 0.000000 0
0.000000 0.000000 0
0.000000 0.000000 0
0.000000 0.000000 0
0.000000 0.000000 0
0.000000 0.000000 0
0.000000 0.000000 0
0.000000 0.000000 0
-0.000000 0.000000 0
-0.000000 0.000000 0
-0.000000 0.000000 0
-0.000000 0.000000 0
-0.000000 0.000000 0
-0.000000 0.000000 0
-0.000000 0.000000 0
-0.000000 0.000000 0
-0.000001 0.000000 0
-0.000001 0.000000 0
-0.000001 0.000000 0
-0.000000 0.000000 0
-0.000000 0.000000 0
-0.000000 0.000000 0
-0.000000 0.000000 0
-0.000000 0.000000 0
-0.000000 0.000000 0
-0.000000 0.000000 0
0.000000 0.000000 0
0.000000 0.000000 0
0.000000 0.000000 0
0.000000 0.000000 0
0.000000 0.000000 0
0.000000 0.000000 0
0.000000 0.000000 0
0.000000 0.000000 0
0.000000 0.000000 0
0.000000 0.000000 0
0.000000 0.000000 0
0.000000 0.000000 0
0.000000 0.000000 0
-0.000000 0.000000 0
-0.000000 0.000000 0
0.000000 0.000000 0
0.000000 0.000000 0
0.001760 0.001722 0
0.001733 0.001978 0
0.001514 0.001986 0
0.001207 0.001976 0
0.000843 0.001977 0
0.000435 0.001986 0
-0.000008 0.001996 0
-0.000478 0.002004 0
-0.000966 0.002010 0
-0.001465 0.002011 0
-0.001966 0.002010 0
-0.002464 0.002005 0
-0.002951 0.001998 0
-0.003424 0.001988 0
-0.003878 0.001976 0
-0.004308 0.001963 0
-0.004713 0.001948 0
-0.005089 0.001932 0
-0.005433 0.001914 0
-0.005744 0.001896 0
-0.006019 0.001876 0
-0.006256 0.001856 0
-0.006454 0.001834 0
-0.006611 0.001812 0
-0.006727 0.001789 0
-0.006798 0.001765 0
-0.006826 0.001741 0
-0.006810 0.001717 0
-0.006749 0.001693 0
-0.006644 0.001670 0
-0.006496 0.001647 0
-0.006308 0.001626 0
-0.006082 0.001606 0
-0.005821 0.001588 0
-0.005530 0.001573 0
-0.005216 0.001562 0
-0.004885 0.001556 0
-0.004545 0.001554 0
-0.004207 0.001560 0
-0.003882 0.001572 0
-0.003585 0.001595 0
-0.003331 0.001630 0
-0.003140 0.001680 0
-0.003033 0.001752 0
-0.003036 0.001853 0
-0.003171 0.001993 0
-0.003443 0.002156 0
-0.003790 0.002208 0
-0.003935 0.001439 0
0.000000 0.000000 0
0.000000 0.000000 0
0.001952 0.001742 0
0.002194 0.002437 0
0.002060 0.002718 0
0.001671 0.002863 0
0.001110 0.002963 0
0.000426 0.003042 0
-0.000347 0.003104 0
-0.001185 0.003149 0
-0.002067 0.003178 0
-0.002975 0.003191 0
-0.003892 0.003190 0
-0.004806 0.003176 0
-0.005705 0.003151 0
-0.006578 0.003117 0
-0.007418 0.003075 0
-0.008216 0.003026 0
-0.008966 0.002971 0
-0.009662 0.002911 0
-0.010301 0.002846 0
-0.010876 0.002777 0
-0.011385 0.002703 0
-0.011824 0.002627 0
-0.012190 0.002546 0
-0.012479 0.002463 0
-0.012690 0.002378 0
-0.012821 0.002291 0
-0.012870 0.002202 0
-0.012837 0.002114 0
-0.012722 0.002025 0
-0.012526 0.001939 0
-0.012251 0.001855 0
-0.011901 0.001776 0
-0.011481 0.001704 0
-0.010998 0.001640 0
-0.010460 0.001586 0
-0.009877 0.001545 0
-0.009262 0.001520 0
-0.008630 0.001513 0
-0.007997 0.001528 0
-0.007382 0.001569 0
-0.006807 0.001640 0
-0.006295 0.001746 0
-0.005870 0.001893 0
-0.005555 0.002087 0
-0.005366 0.002329 0
-0.005296 0.002598 0
-0.005296 0.002810 0
-0.005229 0.002682 0
-0.004867 0.001446 0
0.000000 0.000000 0
0.000000 -0.000000 0
0.001863 0.001719 0
0.002159 0.002776 0
0.002070 0.003415 0
0.001646 0.003832 0
0.000962 0.004129 0
0.000084 0.004350 0
-0.000940 0.004514 0
-0.002068 0.004631 0
-0.003268 0.004706 0
-0.004511 0.004743 0
-0.005775 0.004748 0
-0.007038 0.004725 0
-0.008283 0.004677 0
-0.009496 0.004607 0
-0.010663 0.004520 0
-0.011774 0.004418 0
-0.012818 0.004301 0
-0.013789 0.004173 0
-0.014678 0.004035 0
-0.015480 0.003887 0
-0.016189 0.003731 0
-0.016799 0.003567 0
-0.017306 0.003396 0
-0.017707 0.003219 0
-0.017998 0.003037 0
-0.018176 0.002852 0
-0.018241 0.002664 0
-0.018191 0.002475 0
-0.018026 0.002289 0
-0.017749 0.002106 0
-0.017362 0.001929 0
-0.016871 0.001763 0
-0.016282 0.001609 0
-0.015605 0.001474 0
-0.014850 0.001359 0
-0.014032 0.001271 0
-0.013166 0.001215 0
-0.012270 0.001195 0
-0.011366 0.001218 0
-0.010477 0.001289 0
-0.009627 0.001415 0
-0.008839 0.001600 0
-0.008137 0.001847 0
-0.007533 0.002154 0
-0.007030 0.002501 0
-0.006600 0.002830 0
-0.006177 0.002996 0
-0.005660 0.002685 0
-0.004983 0.001312 0
0.000000 0.000000 0
0.000000 -0.000000 0
0.001755 0.001774 0
0.001980 0.003137 0
0.001845 0.004138 0
0.001355 0.004877 0
0.000560 0.005432 0
-0.000478 0.005851 0
-0.001704 0.006162 0
-0.003069 0.006384 0
-0.004531 0.006528 0
-0.006054 0.006605 0
-0.007607 0.006623 0
-0.009165 0.006591 0
-0.010704 0.006516 0
-0.012205 0.006404 0
-0.013651 0.006260 0
-0.015029 0.006088 0
-0.016325 0.005893 0
-0.017530 0.005678 0
-0.018634 0.005444 0
-0.019629 0.005194 0
-0.020508 0.004929 0
-0.021264 0.004651 0
-0.021892 0.004361 0
-0.022387 0.004062 0
-0.022744 0.003754 0
-0.022962 0.003441 0
-0.023037 0.003123 0
-0.022969 0.002805 0
-0.022759 0.002490 0
-0.022408 0.002181 0
-0.021921 0.001884 0
-0.021304 0.001603 0
-0.020564 0.001345 0
-0.019713 0.001114 0
-0.018763 0.000919 0
-0.017731 0.000767 0
-0.016635 0.000665 0
-0.015495 0.000621 0
-0.014335 0.000642 0
-0.013179 0.000736 0
-0.012051 0.000909 0
-0.010975 0.001163 0
-0.009969 0.001494 0
-0.009041 0.001887 0
-0.008187 0.002302 0
-0.007380 0.002653 0
-0.006577 0.002777 0
-0.005740 0.002394 0
-0.004920 0.001109 0
0.000000 0.000000 0
0.000000 -0.000000 0
0.001667 0.001931 0
0.001778 0.003593 0
0.001539 0.004947 0
0.000944 0.006023 0
0.000026 0.006868 0
-0.001163 0.007520 0
-0.002567 0.008012 0
-0.004136 0.008364 0
-0.005822 0.008597 0
-0.007583 0.008726 0
-0.009383 0.008766 0
-0.011192 0.008728 0
-0.012981 0.008623 0
-0.014729 0.008461 0
-0.016415 0.008251 0
-0.018022 0.007999 0
-0.019535 0.007710 0
-0.020942 0.007389 0
-0.022231 0.007041 0
-0.023392 0.006668 0
-0.024418 0.006272 0
-0.025299 0.005857 0
-0.026030 0.005425 0
-0.026604 0.004978 0
-0.027018 0.004519 0
-0.027268 0.004051 0
-0.027350 0.003578 0
-0.027264 0.003104 0
-0.027011 0.002634 0
-0.026593 0.002175 0
-0.026014 0.001731 0
-0.025282 0.001312 0
-0.024404 0.000925 0
-0.023393 0.000579 0
-0.022264 0.000284 0
-0.021033 0.000049 0
-0.019720 -0.000114 0
-0.018348 -0.000198 0
-0.016941 -0.000191 0
-0.015523 -0.000088 0
-0.014119 0.000118 0
-0.012752 0.000424 0
-0.011438 0.000820 0
-0.010188 0.001279 0
-0.008999 0.001746 0
-0.007860 0.002126 0
-0.006762 0.002263 0
-0.005722 0.001935 0
-0.004835 0.000878 0
0.000000 0.000000 0
0.000000 -0.000000 0
0.001599 0.002187 0
0.001591 0.004171 0
0.001224 0.005878 0
0.000497 0.007296 0
-0.000560 0.008445 0
-0.001902 0.009351 0
-0.003475 0.010042 0
-0.005229 0.010545 0
-0.007113 0.010881 0
-0.009083 0.011073 0
-0.011098 0.011139 0
-0.013125 0.011096 0
-0.015133 0.010960 0
-0.017095 0.010744 0
-0.018989 0.010459 0
-0.020795 0.010115 0
-0.022496 0.009720 0
-0.024078 0.009280 0
-0.025528 0.008801 0
-0.026834 0.008287 0
-0.027987 0.007742 0
-0.028977 0.007170 0
-0.029797 0.006574 0
-0.030442 0.005957 0
-0.030904 0.005324 0
-0.031180 0.004679 0
-0.031267 0.004027 0
-0.031163 0.003373 0
-0.030870 0.002726 0
-0.030389 0.002091 0
-0.029725 0.001479 0
-0.028884 0.000899 0
-0.027878 0.000363 0
-0.026717 -0.000119 0
-0.025418 -0.000534 0
-0.023998 -0.000870 0
-0.022478 -0.001113 0
-0.020882 -0.001252 0
-0.019234 -0.001276 0
-0.017560 -0.001178 0
-0.015886 -0.000955 0
-0.014235 -0.000612 0
-0.012627 -0.000164 0
-0.011075 0.000354 0
-0.009590 0.000881 0
-0.008179 0.001323 0
-0.006862 0.001545 0
-0.005689 0.001374 0
-0.004768 0.000633 0
0.000000 0.000000 0
0.000000 -0.000000 0
0.001546 0.002531 0
0.001425 0.004876 0
0.000924 0.006947 0
0.000053 0.008713 0
-0.001153 0.010173 0
-0.002651 0.011342 0
-0.004391 0.012245 0
-0.006319 0.012908 0
-0.008385 0.013358 0
-0.010544 0.013618 0
-0.012753 0.013715 0
-0.014974 0.013669 0
-0.017174 0.013499 0
-0.019326 0.013224 0
-0.021403 0.012858 0
-0.023385 0.012413 0
-0.025252 0.011900 0
-0.026989 0.011327 0
-0.028581 0.010703 0
-0.030015 0.010033 0
-0.031281 0.009322 0
-0.032368 0.008575 0
-0.033268 0.007796 0
-0.033974 0.006991 0
-0.034479 0.006164 0
-0.034778 0.005321 0
-0.034869 0.004468 0
-0.034748 0.003614 0
-0.034416 0.002767 0
-0.033876 0.001936 0
-0.033132 0.001134 0
-0.032190 0.000372 0
-0.031061 -0.000335 0
-0.029757 -0.000974 0
-0.028294 -0.001529 0
-0.026691 -0.001984 0
-0.024970 -0.002324 0
-0.023156 -0.002535 0
-0.021273 -0.002606 0
-0.019351 -0.002529 0
-0.017415 -0.002300 0
-0.015493 -0.001929 0
-0.013610 -0.001434 0
-0.011786 -0.000852 0
-0.010046 -0.000243 0
-0.008415 0.000305 0
-0.006933 0.000680 0
-0.005667 0.000747 0
-0.004724 0.000380 0
0.000000 0.000000 0
0.000000 -0.000000 0
0.001501 0.002953 0
0.001281 0.005700 0
0.000647 0.008157 0
-0.000369 0.010280 0
-0.001730 0.012057 0
-0.003387 0.013495 0
-0.005291 0.014616 0
-0.007389 0.015446 0
-0.009629 0.016013 0
-0.011964 0.016347 0
-0.014350 0.016475 0
-0.016748 0.016424 0
-0.019124 0.016219 0
-0.021446 0.015880 0
-0.023689 0.015425 0
-0.025829 0.014871 0
-0.027847 0.014231 0
-0.029723 0.013515 0
-0.031443 0.012733 0
-0.032994 0.011893 0
-0.034362 0.011001 0
-0.035538 0.010064 0
-0.036511 0.009086 0
-0.037273 0.008074 0
-0.037818 0.007035 0
-0.038140 0.005975 0
-0.038233 0.004903 0
-0.038097 0.003828 0
-0.037730 0.002760 0
-0.037134 0.001713 0
-0.036313 0.000699 0
-0.035275 -0.000265 0
-0.034027 -0.001164 0
-0.032585 -0.001979 0
-0.030963 -0.002693 0
-0.029182 -0.003287 0
-0.027264 -0.003742 0
-0.025235 -0.004043 0
-0.023123 -0.004175 0
-0.020958 -0.004130 0
-0.018770 -0.003906 0
-0.016591 -0.003511 0
-0.014453 -0.002964 0
-0.012386 -0.002303 0
-0.010425 -0.001584 0
-0.008612 -0.000883 0
-0.006999 -0.000296 0
-0.005662 0.000071 0
-0.004699 0.000120 0
0.000000 0.000000 0
0.000000 -0.000000 0
0.001464 0.003442 0
0.001152 0.006637 0
0.000394 0.009504 0
-0.000767 0.011997 0
-0.002282 0.014098 0
-0.004100 0.015810 0
-0.006167 0.017153 0
-0.008431 0.018152 0
-0.010840 0.018839 0
-0.013343 0.019246 0
-0.015897 0.019406 0
-0.018462 0.019349 0
-0.021001 0.019104 0
-0.023482 0.018696 0
-0.025878 0.018147 0
-0.028165 0.017477 0
-0.030320 0.016700 0
-0.032326 0.015831 0
-0.034166 0.014881 0
-0.035824 0.013858 0
-0.037289 0.012772 0
-0.038548 0.011630 0
-0.039591 0.010439 0
-0.040408 0.009205 0
-0.040992 0.007937 0
-0.041336 0.006643 0
-0.041435 0.005332 0
-0.041286 0.004017 0
-0.040887 0.002710 0
-0.040239 0.001426 0
-0.039346 0.000181 0
-0.038213 -0.001008 0
-0.036851 -0.002119 0
-0.035273 -0.003132 0
-0.033495 -0.004025 0
-0.031538 -0.004776 0
-0.029425 -0.005364 0
-0.027184 -0.005770 0
-0.024846 -0.005977 0
-0.022444 -0.005975 0
-0.020012 -0.005760 0
-0.017588 -0.005340 0
-0.015211 -0.004733 0
-0.012921 -0.003973 0
-0.010765 -0.003111 0
-0.008794 -0.002214 0
-0.007071 -0.001363 0
-0.005672 -0.000647 0
-0.004689 -0.000147 0
0.000000 0.000000 0
0.000000 -0.000000 0
0.001432 0.003991 0
0.001037 0.007677 0
0.000161 0.010982 0
-0.001140 0.013862 0
-0.002808 0.016296 0
-0.004786 0.018288 0
-0.007018 0.019855 0
-0.009448 0.021025 0
-0.012022 0.021831 0
-0.014690 0.022311 0
-0.017407 0.022500 0
-0.020132 0.022434 0
-0.022826 0.022146 0
-0.025459 0.021664 0
-0.028000 0.021014 0
-0.030426 0.020220 0
-0.032713 0.019299 0
-0.034842 0.018267 0
-0.036795 0.017138 0
-0.038558 0.015923 0
-0.040116 0.014632 0
-0.041457 0.013272 0
-0.042569 0.011853 0
-0.043442 0.010382 0
-0.044066 0.008870 0
-0.044436 0.007325 0
-0.044544 0.005759 0
-0.044385 0.004186 0
-0.043958 0.002620 0
-0.043262 0.001078 0
-0.042301 -0.000419 0
-0.041079 -0.001852 0
-0.039606 -0.003197 0
-0.037894 -0.004429 0
-0.035962 -0.005522 0
-0.033829 -0.006450 0
-0.031522 -0.007189 0
-0.029070 -0.007715 0
-0.026507 -0.008009 0
-0.023869 -0.008058 0
-0.021198 -0.007855 0
-0.018536 -0.007405 0
-0.015931 -0.006724 0
-0.013432 -0.005842 0
-0.011094 -0.004805 0
-0.008978 -0.003671 0
-0.007153 -0.002512 0
-0.005696 -0.001404 0
-0.004691 -0.000423 0
0.000000 0.000000 0
0.000000 -0.000000 0
0.001402 0.004596 0
0.000931 0.008814 0
-0.000058 0.012587 0
-0.001494 0.015872 0
-0.003313 0.018651 0
-0.005452 0.020927 0
-0.007848 0.022721 0
-0.010444 0.024062 0
-0.013183 0.024988 0
-0.016015 0.025538 0
-0.018893 0.025754 0
-0.021775 0.025675 0
-0.024622 0.025338 0
-0.027402 0.024777 0
-0.030086 0.024021 0
-0.032646 0.023096 0
-0.035061 0.022023 0
-0.037311 0.020820 0
-0.039377 0.019504 0
-0.041243 0.018086 0
-0.042895 0.016578 0
-0.044319 0.014989 0
-0.045502 0.013330 0
-0.046433 0.011609 0
-0.047103 0.009838 0
-0.047503 0.008026 0
-0.047624 0.006188 0
-0.047462 0.004339 0
-0.047013 0.002494 0
-0.046275 0.000675 0
-0.045250 -0.001096 0
-0.043942 -0.002796 0
-0.042361 -0.004397 0
-0.040518 -0.005869 0
-0.038432 -0.007183 0
-0.036124 -0.008309 0
-0.033621 -0.009217 0
-0.030956 -0.009878 0
-0.028165 -0.010271 0
-0.025291 -0.010377 0
-0.022380 -0.010187 0
-0.019482 -0.009700 0
-0.016652 -0.008930 0
-0.013948 -0.007903 0
-0.011433 -0.006658 0
-0.009176 -0.005248 0
-0.007250 -0.003739 0
-0.005732 -0.002202 0
-0.004703 -0.000710 0
0.000000 0.000000 0
0.000000 -0.000000 0
0.001375 0.005252 0
0.000831 0.010043 0
-0.000265 0.014314 0
-0.001835 0.018024 0
-0.003804 0.021161 0
-0.006102 0.023729 0
-0.008664 0.025753 0
-0.011428 0.027266 0
-0.014334 0.028310 0
-0.017332 0.028928 0
-0.020371 0.029167 0
-0.023410 0.029070 0
-0.026410 0.028680 0
-0.029338 0.028034 0
-0.032162 0.027165 0
-0.034858 0.026102 0
-0.037402 0.024870 0
-0.039773 0.023490 0
-0.041953 0.021977 0
-0.043925 0.020348 0
-0.045673 0.018613 0
-0.047183 0.016785 0
-0.048443 0.014874 0
-0.049439 0.012890 0
-0.050160 0.010846 0
-0.050597 0.008753 0
-0.050739 0.006625 0
-0.050581 0.004481 0
-0.050117 0.002339 0
-0.049343 0.000222 0
-0.048260 -0.001846 0
-0.046871 -0.003835 0
-0.045185 -0.005714 0
-0.043213 -0.007451 0
-0.040973 -0.009010 0
-0.038488 -0.010354 0
-0.035787 -0.011450 0
-0.032904 -0.012264 0
-0.029881 -0.012767 0
-0.026765 -0.012936 0
-0.023609 -0.012758 0
-0.020469 -0.012227 0
-0.017409 -0.011352 0
-0.014496 -0.010154 0
-0.011801 -0.008670 0
-0.009399 -0.006947 0
-0.007367 -0.005049 0
-0.005783 -0.003045 0
-0.004724 -0.001010 0
0.000000 0.000000 0
0.000000 -0.000000 0
0.001349 0.005956 0
0.000734 0.011361 0
-0.000467 0.016159 0
-0.002168 0.020317 0
-0.004287 0.023825 0
-0.006747 0.026695 0
-0.009477 0.028953 0
-0.012411 0.030639 0
-0.015488 0.031799 0
-0.018654 0.032482 0
-0.021858 0.032739 0
-0.025057 0.032621 0
-0.028212 0.032172 0
-0.031289 0.031436 0
-0.034258 0.030448 0
-0.037091 0.029242 0
-0.039766 0.027844 0
-0.042262 0.026278 0
-0.044560 0.024562 0
-0.046642 0.022713 0
-0.048493 0.020743 0
-0.050097 0.018666 0
-0.051440 0.016492 0
-0.052508 0.014233 0
-0.053290 0.011902 0
-0.053773 0.009512 0
-0.053946 0.007079 0
-0.053801 0.004622 0
-0.053331 0.002163 0
-0.052530 -0.000275 0
-0.051396 -0.002661 0
-0.049933 -0.004964 0
-0.048146 -0.007148 0
-0.046047 -0.009174 0
-0.043653 -0.011002 0
-0.040989 -0.012589 0
-0.038084 -0.013894 0
-0.034977 -0.014877 0
-0.031713 -0.015503 0
-0.028344 -0.015743 0
-0.024931 -0.015576 0
-0.021538 -0.014993 0
-0.018236 -0.013996 0
-0.015102 -0.012604 0
-0.012215 -0.010848 0
-0.009656 -0.008776 0
-0.007507 -0.006449 0
-0.005847 -0.003938 0
-0.004753 -0.001325 0
0.000000 0.000000 0
0.000000 -0.000000 0
0.001323 0.006709 0
0.000639 0.012766 0
-0.000667 0.018123 0
-0.002500 0.022751 0
-0.004771 0.026646 0
-0.007395 0.029826 0
-0.010297 0.032324 0
-0.013406 0.034184 0
-0.016659 0.035459 0
-0.019997 0.036204 0
-0.023371 0.036477 0
-0.026735 0.036331 0
-0.030050 0.035819 0
-0.033281 0.034986 0
-0.036397 0.033874 0
-0.039373 0.032518 0
-0.042185 0.030948 0
-0.044812 0.029190 0
-0.047233 0.027264 0
-0.049433 0.025187 0
-0.051394 0.022974 0
-0.053100 0.020639 0
-0.054536 0.018192 0
-0.055688 0.015647 0
-0.056540 0.013017 0
-0.057081 0.010316 0
-0.057297 0.007561 0
-0.057177 0.004772 0
-0.056712 0.001974 0
-0.055895 -0.000806 0
-0.054721 -0.003535 0
-0.053190 -0.006178 0
-0.051308 -0.008694 0
-0.049085 -0.011037 0
-0.046538 -0.013162 0
-0.043690 -0.015017 0
-0.040576 -0.016555 0
-0.037235 -0.017728 0
-0.033717 -0.018493 0
-0.030081 -0.018812 0
-0.026394 -0.018658 0
-0.022728 -0.018015 0
-0.019166 -0.016881 0
-0.015791 -0.015269 0
-0.012692 -0.013209 0
-0.009957 -0.010749 0
-0.007675 -0.007951 0
-0.005928 -0.004892 0
-0.004792 -0.001660 0
0.000000 0.000000 0
0.000000 0.000000 0
0.001297 0.007508 0
0.000543 0.014258 0
-0.000869 0.020205 0
-0.002837 0.025327 0
-0.005262 0.029627 0
-0.008056 0.033128 0
-0.011135 0.035871 0
-0.014425 0.037907 0
-0.017859 0.039296 0
-0.021377 0.040101 0
-0.024926 0.040384 0
-0.028461 0.040206 0
-0.031942 0.039624 0
-0.035333 0.038690 0
-0.038605 0.037447 0
-0.041730 0.035936 0
-0.044685 0.034189 0
-0.047449 0.032233 0
-0.050003 0.030090 0
-0.052329 0.027780 0
-0.054410 0.025317 0
-0.056229 0.022715 0
-0.057770 0.019986 0
-0.059017 0.017144 0
-0.059955 0.014202 0
-0.060567 0.011176 0
-0.060840 0.008082 0
-0.060760 0.004944 0
-0.060314 0.001786 0
-0.059493 -0.001360 0
-0.058290 -0.004459 0
-0.056703 -0.007470 0
-0.054733 -0.010347 0
-0.052391 -0.013038 0
-0.049690 -0.015490 0
-0.046658 -0.017644 0
-0.043326 -0.019443 0
-0.039740 -0.020829 0
-0.035952 -0.021750 0
-0.032029 -0.022160 0
-0.028044 -0.022023 0
-0.024081 -0.021314 0
-0.020230 -0.020027 0
-0.016587 -0.018171 0
-0.013249 -0.015775 0
-0.010315 -0.012886 0
-0.007879 -0.009571 0
-0.006029 -0.005915 0
-0.004841 -0.002017 0
0.000000 0.000000 0
0.000000 0.000000 0
0.001271 0.008356 0
0.000445 0.015839 0
-0.001077 0.022410 0
-0.003183 0.028050 0
-0.005769 0.032772 0
-0.008738 0.036605 0
-0.012001 0.039600 0
-0.015479 0.041815 0
-0.019102 0.043318 0
-0.022807 0.044179 0
-0.026540 0.044468 0
-0.030254 0.044253 0
-0.033908 0.043597 0
-0.037467 0.042555 0
-0.040900 0.041177 0
-0.044182 0.039505 0
-0.047289 0.037574 0
-0.050200 0.035415 0
-0.052896 0.033050 0
-0.055358 0.030500 0
-0.057570 0.027781 0
-0.059515 0.024905 0
-0.061174 0.021887 0
-0.062531 0.018739 0
-0.063569 0.015474 0
-0.064270 0.012108 0
-0.064617 0.008660 0
-0.064593 0.005153 0
-0.064184 0.001614 0
-0.063376 -0.001923 0
-0.062159 -0.005419 0
-0.060528 -0.008829 0
-0.058481 -0.012099 0
-0.056026 -0.015174 0
-0.053175 -0.017988 0
-0.049955 -0.020475 0
-0.046398 -0.022567 0
-0.042553 -0.024195 0
-0.038478 -0.025296 0
-0.034243 -0.025813 0
-0.029933 -0.025699 0
-0.025640 -0.024922 0
-0.021466 -0.023468 0
-0.017518 -0.021343 0
-0.013908 -0.018574 0
-0.010742 -0.015213 0
-0.008126 -0.011331 0
-0.006153 -0.007023 0
-0.004903 -0.002402 0
0.000000 0.000000 0
0.000000 0.000000 0
0.001243 0.009254 0
0.000342 0.017513 0
-0.001294 0.024740 0
-0.003545 0.030926 0
-0.006298 0.036088 0
-0.009450 0.040266 0
-0.012906 0.043519 0
-0.016581 0.045915 0
-0.020402 0.047531 0
-0.024303 0.048446 0
-0.028228 0.048737 0
-0.032129 0.048480 0
-0.035964 0.047744 0
-0.039698 0.046589 0
-0.043302 0.045069 0
-0.046749 0.043231 0
-0.050017 0.041113 0
-0.053084 0.038746 0
-0.055932 0.036155 0
-0.058543 0.033361 0
-0.060899 0.030380 0
-0.062982 0.027225 0
-0.064775 0.023910 0
-0.066259 0.020446 0
-0.067415 0.016848 0
-0.068223 0.013130 0
-0.068663 0.009312 0
-0.068716 0.005418 0
-0.068364 0.001476 0
-0.067589 -0.002478 0
-0.066377 -0.006400 0
-0.064718 -0.010241 0
-0.062608 -0.013942 0
-0.060049 -0.017437 0
-0.057054 -0.020654 0
-0.053645 -0.023514 0
-0.049857 -0.025938 0
-0.045739 -0.027843 0
-0.041355 -0.029153 0
-0.036781 -0.029798 0
-0.032112 -0.029720 0
-0.027450 -0.028875 0
-0.022910 -0.027242 0
-0.018616 -0.024823 0
-0.014689 -0.021644 0
-0.011254 -0.017761 0
-0.008425 -0.013254 0
-0.006305 -0.008231 0
-0.004981 -0.002821 0
0.000000 0.000000 0
0.000000 0.000001 0
0.001214 0.010205 0
0.000234 0.019283 0
-0.001523 0.027204 0
-0.003927 0.033961 0
-0.006856 0.039583 0
-0.010201 0.044119 0
-0.013859 0.047637 0
-0.017741 0.050218 0
-0.021770 0.051946 0
-0.025876 0.052911 0
-0.030002 0.053201 0
-0.034099 0.052896 0
-0.038124 0.052073 0
-0.042043 0.050800 0
-0.045826 0.049134 0
-0.049447 0.047126 0
-0.052884 0.044816 0
-0.056117 0.042237 0
-0.059128 0.039416 0
-0.061899 0.036374 0
-0.064412 0.033127 0
-0.066649 0.029688 0
-0.068592 0.026071 0
-0.070221 0.022285 0
-0.071514 0.018344 0
-0.072450 0.014263 0