# vtk DataFile Version 2.0
generated by CFD-lab course output (written by Tobias Neckel) 
ASCII

DATASET STRUCTURED_GRID
DIMENSIONS  51 51 1 
POINTS 2601 float

0.000000 0.000000 0
0.020000 0.000000 0
0.040000 0.000000 0
0.060000 0.000000 0
0.080000 0.000000 0
0.100000 0.000000 0
0.120000 0.000000 0
0.140000 0.000000 0
0.160000 0.000000 0
0.180000 0.000000 0
0.200000 0.000000 0
0.220000 0.000000 0
0.240000 0.000000 0
0.260000 0.000000 0
0.280000 0.000000 0
0.300000 0.000000 0
0.320000 0.000000 0
0.340000 0.000000 0
0.360000 0.000000 0
0.380000 0.000000 0
0.400000 0.000000 0
0.420000 0.000000 0
0.440000 0.000000 0
0.460000 0.000000 0
0.480000 0.000000 0
0.500000 0.000000 0
0.520000 0.000000 0
0.540000 0.000000 0
0.560000 0.000000 0
0.580000 0.000000 0
0.600000 0.000000 0
0.620000 0.000000 0
0.640000 0.000000 0
0.660000 0.000000 0
0.680000 0.000000 0
0.700000 0.000000 0
0.720000 0.000000 0
0.740000 0.000000 0
0.760000 0.000000 0
0.780000 0.000000 0
0.800000 0.000000 0
0.820000 0.000000 0
0.840000 0.000000 0
0.860000 0.000000 0
0.880000 0.000000 0
0.900000 0.000000 0
0.920000 0.000000 0
0.940000 0.000000 0
0.960000 0.000000 0
0.980000 0.000000 0
1.000000 0.000000 0
0.000000 0.020000 0
0.020000 0.020000 0
0.040000 0.020000 0
0.060000 0.020000 0
0.080000 0.020000 0
0.100000 0.020000 0
0.120000 0.020000 0
0.140000 0.020000 0
0.160000 0.020000 0
0.180000 0.020000 0
0.200000 0.020000 0
0.220000 0.020000 0
0.240000 0.020000 0
0.260000 0.020000 0
0.280000 0.020000 0
0.300000 0.020000 0
0.320000 0.020000 0
0.340000 0.020000 0
0.360000 0.020000 0
0.380000 0.020000 0
0.400000 0.020000 0
0.420000 0.020000 0
0.440000 0.020000 0
0.460000 0.020000 0
0.480000 0.020000 0
0.500000 0.020000 0
0.520000 0.020000 0
0.540000 0.020000 0
0.560000 0.020000 0
0.580000 0.020000 0
0.600000 0.020000 0
0.620000 0.020000 0
0.640000 0.020000 0
0.660000 0.020000 0
0.680000 0.020000 0
0.700000 0.020000 0
0.720000 0.020000 0
0.740000 0.020000 0
0.760000 0.020000 0
0.780000 0.020000 0
0.800000 0.020000 0
0.820000 0.020000 0
0.840000 0.020000 0
0.860000 0.020000 0
0.880000 0.020000 0
0.900000 0.020000 0
0.920000 0.020000 0
0.940000 0.020000 0
0.960000 0.020000 0
0.980000 0.020000 0
1.000000 0.020000 0
0.000000 0.040000 0
0.020000 0.040000 0
0.040000 0.040000 0
0.060000 0.040000 0
0.080000 0.040000 0
0.100000 0.040000 0
0.120000 0.040000 0
0.140000 0.040000 0
0.160000 0.040000 0
0.180000 0.040000 0
0.200000 0.040000 0
0.220000 0.040000 0
0.240000 0.040000 0
0.260000 0.040000 0
0.280000 0.040000 0
0.300000 0.040000 0
0.320000 0.040000 0
0.340000 0.040000 0
0.360000 0.040000 0
0.380000 0.040000 0
0.400000 0.040000 0
0.420000 0.040000 0
0.440000 0.040000 0
0.460000 0.040000 0
0.480000 0.040000 0
0.500000 0.040000 0
0.520000 0.040000 0
0.540000 0.040000 0
0.560000 0.040000 0
0.580000 0.040000 0
0.600000 0.040000 0
0.620000 0.040000 0
0.640000 0.040000 0
0.660000 0.040000 0
0.680000 0.040000 0
0.700000 0.040000 0
0.720000 0.040000 0
0.740000 0.040000 0
0.760000 0.040000 0
0.780000 0.040000 0
0.800000 0.040000 0
0.820000 0.040000 0
0.840000 0.040000 0
0.860000 0.040000 0
0.880000 0.040000 0
0.900000 0.040000 0
0.920000 0.040000 0
0.940000 0.040000 0
0.960000 0.040000 0
0.980000 0.040000 0
1.000000 0.040000 0
0.000000 0.060000 0
0.020000 0.060000 0
0.040000 0.060000 0
0.060000 0.060000 0
0.080000 0.060000 0
0.100000 0.060000 0
0.120000 0.060000 0
0.140000 0.060000 0
0.160000 0.060000 0
0.180000 0.060000 0
0.200000 0.060000 0
0.220000 0.060000 0
0.240000 0.060000 0
0.260000 0.060000 0
0.280000 0.060000 0
0.300000 0.060000 0
0.320000 0.060000 0
0.340000 0.060000 0
0.360000 0.060000 0
0.380000 0.060000 0
0.400000 0.060000 0
0.420000 0.060000 0
0.440000 0.060000 0
0.460000 0.060000 0
0.480000 0.060000 0
0.500000 0.060000 0
0.520000 0.060000 0
0.540000 0.060000 0
0.560000 0.060000 0
0.580000 0.060000 0
0.600000 0.060000 0
0.620000 0.060000 0
0.640000 0.060000 0
0.660000 0.060000 0
0.680000 0.060000 0
0.700000 0.060000 0
0.720000 0.060000 0
0.740000 0.060000 0
0.760000 0.060000 0
0.780000 0.060000 0
0.800000 0.060000 0
0.820000 0.060000 0
0.840000 0.060000 0
0.860000 0.060000 0
0.880000 0.060000 0
0.900000 0.060000 0
0.920000 0.060000 0
0.940000 0.060000 0
0.960000 0.060000 0
0.980000 0.060000 0
1.000000 0.060000 0
0.000000 0.080000 0
0.020000 0.080000 0
0.040000 0.080000 0
0.060000 0.080000 0
0.080000 0.080000 0
0.100000 0.080000 0
0.120000 0.080000 0
0.140000 0.080000 0
0.160000 0.080000 0
0.180000 0.080000 0
0.200000 0.080000 0
0.220000 0.080000 0
0.240000 0.080000 0
0.260000 0.080000 0
0.280000 0.080000 0
0.300000 0.080000 0
0.320000 0.080000 0
0.340000 0.080000 0
0.360000 0.080000 0
0.380000 0.080000 0
0.400000 0.080000 0
0.420000 0.080000 0
0.440000 0.080000 0
0.460000 0.080000 0
0.480000 0.080000 0
0.500000 0.080000 0
0.520000 0.080000 0
0.540000 0.080000 0
0.560000 0.080000 0
0.580000 0.080000 0
0.600000 0.080000 0
0.620000 0.080000 0
0.640000 0.080000 0
0.660000 0.080000 0
0.680000 0.080000 0
0.700000 0.080000 0
0.720000 0.080000 0
0.740000 0.080000 0
0.760000 0.080000 0
0.780000 0.080000 0
0.800000 0.080000 0
0.820000 0.080000 0
0.840000 0.080000 0
0.860000 0.080000 0
0.880000 0.080000 0
0.900000 0.080000 0
0.920000 0.080000 0
0.940000 0.080000 0
0.960000 0.080000 0
0.980000 0.080000 0
1.000000 0.080000 0
0.000000 0.100000 0
0.020000 0.100000 0
0.040000 0.100000 0
0.060000 0.100000 0
0.080000 0.100000 0
0.100000 0.100000 0
0.120000 0.100000 0
0.140000 0.100000 0
0.160000 0.100000 0
0.180000 0.100000 0
0.200000 0.100000 0
0.220000 0.100000 0
0.240000 0.100000 0
0.260000 0.100000 0
0.280000 0.100000 0
0.300000 0.100000 0
0.320000 0.100000 0
0.340000 0.100000 0
0.360000 0.100000 0
0.380000 0.100000 0
0.400000 0.100000 0
0.420000 0.100000 0
0.440000 0.100000 0
0.460000 0.100000 0
0.480000 0.100000 0
0.500000 0.100000 0
0.520000 0.100000 0
0.540000 0.100000 0
0.560000 0.100000 0
0.580000 0.100000 0
0.600000 0.100000 0
0.620000 0.100000 0
0.640000 0.100000 0
0.660000 0.100000 0
0.680000 0.100000 0
0.700000 0.100000 0
0.720000 0.100000 0
0.740000 0.100000 0
0.760000 0.100000 0
0.780000 0.100000 0
0.800000 0.100000 0
0.820000 0.100000 0
0.840000 0.100000 0
0.860000 0.100000 0
0.880000 0.100000 0
0.900000 0.100000 0
0.920000 0.100000 0
0.940000 0.100000 0
0.960000 0.100000 0
0.980000 0.100000 0
1.000000 0.100000 0
0.000000 0.120000 0
0.020000 0.120000 0
0.040000 0.120000 0
0.060000 0.120000 0
0.080000 0.120000 0
0.100000 0.120000 0
0.120000 0.120000 0
0.140000 0.120000 0
0.160000 0.120000 0
0.180000 0.120000 0
0.200000 0.120000 0
0.220000 0.120000 0
0.240000 0.120000 0
0.260000 0.120000 0
0.280000 0.120000 0
0.300000 0.120000 0
0.320000 0.120000 0
0.340000 0.120000 0
0.360000 0.120000 0
0.380000 0.120000 0
0.400000 0.120000 0
0.420000 0.120000 0
0.440000 0.120000 0
0.460000 0.120000 0
0.480000 0.120000 0
0.500000 0.120000 0
0.520000 0.120000 0
0.540000 0.120000 0
0.560000 0.120000 0
0.580000 0.120000 0
0.600000 0.120000 0
0.620000 0.120000 0
0.640000 0.120000 0
0.660000 0.120000 0
0.680000 0.120000 0
0.700000 0.120000 0
0.720000 0.120000 0
0.740000 0.120000 0
0.760000 0.120000 0
0.780000 0.120000 0
0.800000 0.120000 0
0.820000 0.120000 0
0.840000 0.120000 0
0.860000 0.120000 0
0.880000 0.120000 0
0.900000 0.120000 0
0.920000 0.120000 0
0.940000 0.120000 0
0.960000 0.120000 0
0.980000 0.120000 0
1.000000 0.120000 0
0.000000 0.140000 0
0.020000 0.140000 0
0.040000 0.140000 0
0.060000 0.140000 0
0.080000 0.140000 0
0.100000 0.140000 0
0.120000 0.140000 0
0.140000 0.140000 0
0.160000 0.140000 0
0.180000 0.140000 0
0.200000 0.140000 0
0.220000 0.140000 0
0.240000 0.140000 0
0.260000 0.140000 0
0.280000 0.140000 0
0.300000 0.140000 0
0.320000 0.140000 0
0.340000 0.140000 0
0.360000 0.140000 0
0.380000 0.140000 0
0.400000 0.140000 0
0.420000 0.140000 0
0.440000 0.140000 0
0.460000 0.140000 0
0.480000 0.140000 0
0.500000 0.140000 0
0.520000 0.140000 0
0.540000 0.140000 0
0.560000 0.140000 0
0.580000 0.140000 0
0.600000 0.140000 0
0.620000 0.140000 0
0.640000 0.140000 0
0.660000 0.140000 0
0.680000 0.140000 0
0.700000 0.140000 0
0.720000 0.140000 0
0.740000 0.140000 0
0.760000 0.140000 0
0.780000 0.140000 0
0.800000 0.140000 0
0.820000 0.140000 0
0.840000 0.140000 0
0.860000 0.140000 0
0.880000 0.140000 0
0.900000 0.140000 0
0.920000 0.140000 0
0.940000 0.140000 0
0.960000 0.140000 0
0.980000 0.140000 0
1.000000 0.140000 0
0.000000 0.160000 0
0.020000 0.160000 0
0.040000 0.160000 0
0.060000 0.160000 0
0.080000 0.160000 0
0.100000 0.160000 0
0.120000 0.160000 0
0.140000 0.160000 0
0.160000 0.160000 0
0.180000 0.160000 0
0.200000 0.160000 0
0.220000 0.160000 0
0.240000 0.160000 0
0.260000 0.160000 0
0.280000 0.160000 0
0.300000 0.160000 0
0.320000 0.160000 0
0.340000 0.160000 0
0.360000 0.160000 0
0.380000 0.160000 0
0.400000 0.160000 0
0.420000 0.160000 0
0.440000 0.160000 0
0.460000 0.160000 0
0.480000 0.160000 0
0.500000 0.160000 0
0.520000 0.160000 0
0.540000 0.160000 0
0.560000 0.160000 0
0.580000 0.160000 0
0.600000 0.160000 0
0.620000 0.160000 0
0.640000 0.160000 0
0.660000 0.160000 0
0.680000 0.160000 0
0.700000 0.160000 0
0.720000 0.160000 0
0.740000 0.160000 0
0.760000 0.160000 0
0.780000 0.160000 0
0.800000 0.160000 0
0.820000 0.160000 0
0.840000 0.160000 0
0.860000 0.160000 0
0.880000 0.160000 0
0.900000 0.160000 0
0.920000 0.160000 0
0.940000 0.160000 0
0.960000 0.160000 0
0.980000 0.160000 0
1.000000 0.160000 0
0.000000 0.180000 0
0.020000 0.180000 0
0.040000 0.180000 0
0.060000 0.180000 0
0.080000 0.180000 0
0.100000 0.180000 0
0.120000 0.180000 0
0.140000 0.180000 0
0.160000 0.180000 0
0.180000 0.180000 0
0.200000 0.180000 0
0.220000 0.180000 0
0.240000 0.180000 0
0.260000 0.180000 0
0.280000 0.180000 0
0.300000 0.180000 0
0.320000 0.180000 0
0.340000 0.180000 0
0.360000 0.180000 0
0.380000 0.180000 0
0.400000 0.180000 0
0.420000 0.180000 0
0.440000 0.180000 0
0.460000 0.180000 0
0.480000 0.180000 0
0.500000 0.180000 0
0.520000 0.180000 0
0.540000 0.180000 0
0.560000 0.180000 0
0.580000 0.180000 0
0.600000 0.180000 0
0.620000 0.180000 0
[...]
POINT_DATA 2601 

VECTORS velocity float
0.000000 0.000000 0
0.000000 0.000000 0
0.000000 0.000000 0
0.000000 0.000000 0
0.000000 0.000000 0
0.000001 0.000000 0
0.000001 0.000000 0
0.000001 0.000000 0
0.000001 0.000000 0
0.000001 0.000000 0
0.000001 0.000000 0
0.000001 0.000000 0
0.000001 0.000000 0
0.000001 0.000000 0
0.000001 0.000000 0
0.000000 0.000000 0
0.000000 0.000000 0
0.000000 0.000000 0
0.000000 0.000000 0
-0.000000 0.000000 0
-0.000000 0.000000 0
-0.000000 0.000000 0
-0.000000 0.000000 0
-0.000000 0.000000 0
-0.000000 0.000000 0
-0.000001 0.000000 0
-0.000001 0.000000 0
-0.000001 0.000000 0
-0.000001 0.000000 0
-0.000001 0.000000 0
-0.000000 0.000000 0
-0.000000 0.000000 0
-0.000000 0.000000 0
-0.000000 0.000000 0
-0.000000 0.000000 0
-0.000000 0.000000 0
0.000000 0.000000 0
0.000000 0.000000 0
0.000000 0.000000 0
0.000000 0.000000 0
0.000001 0.000000 0
0.000001 0.000000 0
0.000001 0.000000 0
0.000001 0.000000 0
0.000000 0.000000 0
0.000000 0.000000 0
0.000000 0.000000 0
0.000000 0.000000 0
-0.000000 0.000000 0
-0.000000 0.000000 0
0.000000 0.000000 0
0.000000 0.000000 0
0.001732 0.001705 0
0.001686 0.001965 0
0.001441 0.001978 0
0.001103 0.001971 0
0.000709 0.001972 0
0.000275 0.001978 0
-0.000189 0.001984 0
-0.000671 0.001988 0
-0.001162 0.001988 0
-0.001655 0.001985 0
-0.002142 0.001979 0
-0.002618 0.001971 0
-0.003078 0.001960 0
-0.003518 0.001948 0
-0.003936 0.001935 0
-0.004328 0.001921 0
-0.004693 0.001905 0
-0.005029 0.001889 0
-0.005335 0.001873 0
-0.005610 0.001855 0
-0.005851 0.001837 0
-0.006059 0.001819 0
-0.006233 0.001800 0
-0.006370 0.001780 0
-0.006471 0.001760 0
-0.006535 0.001740 0
-0.006562 0.001720 0
-0.006551 0.001699 0
-0.006503 0.001679 0
-0.006418 0.001659 0
-0.006297 0.001640 0
-0.006141 0.001621 0
-0.005952 0.001603 0
-0.005733 0.001587 0
-0.005485 0.001573 0
-0.005215 0.001562 0
-0.004926 0.001554 0
-0.004625 0.001550 0
-0.004319 0.001551 0
-0.004019 0.001558 0
-0.003737 0.001575 0
-0.003487 0.001602 0
-0.003287 0.001646 0
-0.003161 0.001711 0
-0.003133 0.001807 0
-0.003231 0.001943 0
-0.003464 0.002106 0
-0.003775 0.002164 0
-0.003900 0.001415 0
0.000000 0.000000 0
0.000000 0.000000 0
0.001912 0.001743 0
0.002116 0.002453 0
0.001935 0.002745 0
0.001496 0.002894 0
0.000886 0.002991 0
0.000162 0.003060 0
-0.000639 0.003107 0
-0.001491 0.003136 0
-0.002371 0.003147 0
-0.003260 0.003142 0
-0.004144 0.003125 0
-0.005011 0.003098 0
-0.005852 0.003062 0
-0.006659 0.003020 0
-0.007425 0.002972 0
-0.008145 0.002919 0
-0.008816 0.002864 0
-0.009434 0.002804 0
-0.009997 0.002743 0
-0.010501 0.002678 0
-0.010945 0.002612 0
-0.011326 0.002543 0
-0.011643 0.002473 0
-0.011894 0.002401 0
-0.012077 0.002327 0
-0.012193 0.002253 0
-0.012240 0.002178 0
-0.012218 0.002103 0
-0.012128 0.002029 0
-0.011969 0.001956 0
-0.011745 0.001885 0
-0.011457 0.001817 0
-0.011109 0.001754 0
-0.010705 0.001695 0
-0.010251 0.001644 0
-0.009753 0.001603 0
-0.009221 0.001572 0
-0.008666 0.001556 0
-0.008099 0.001557 0
-0.007538 0.001580 0
-0.006999 0.001630 0
-0.006505 0.001713 0
-0.006078 0.001836 0
-0.005741 0.002008 0
-0.005512 0.002232 0
-0.005392 0.002492 0
-0.005338 0.002706 0
-0.005224 0.002598 0
-0.004836 0.001409 0
0.000000 0.000000 0
0.000000 -0.000000 0
0.001819 0.001751 0
0.002065 0.002837 0
0.001916 0.003494 0
0.001430 0.003914 0
0.000691 0.004200 0
-0.000230 0.004398 0
-0.001280 0.004532 0
-0.002413 0.004614 0
-0.003597 0.004652 0
-0.004803 0.004653 0
-0.006008 0.004626 0
-0.007195 0.004574 0
-0.008348 0.004502 0
-0.009458 0.004415 0
-0.010513 0.004316 0
-0.011506 0.004207 0
-0.012432 0.004089 0
-0.013285 0.003965 0
-0.014062 0.003834 0
-0.014757 0.003698 0
-0.015369 0.003557 0
-0.015893 0.003411 0
-0.016328 0.003262 0
-0.016672 0.003110 0
-0.016923 0.002954 0
-0.017080 0.002797 0
-0.017141 0.002639 0
-0.017107 0.002482 0
-0.016979 0.002325 0
-0.016757 0.002172 0
-0.016444 0.002022 0
-0.016043 0.001880 0
-0.015559 0.001746 0
-0.014998 0.001624 0
-0.014366 0.001516 0
-0.013674 0.001427 0
-0.012932 0.001361 0
-0.012154 0.001322 0
-0.011354 0.001317 0
-0.010552 0.001353 0
-0.009768 0.001436 0
-0.009022 0.001575 0
-0.008334 0.001776 0
-0.007721 0.002040 0
-0.007185 0.002353 0
-0.006708 0.002663 0
-0.006231 0.002833 0
-0.005666 0.002557 0
-0.004961 0.001258 0
0.000000 0.000000 0
0.000000 -0.000000 0
0.001709 0.001840 0
0.001880 0.003250 0
0.001681 0.004275 0
0.001128 0.005013 0
0.000281 0.005546 0
-0.000794 0.005926 0
-0.002034 0.006185 0
-0.003388 0.006348 0
-0.004812 0.006431 0
-0.006271 0.006448 0
-0.007736 0.006412 0
-0.009183 0.006333 0
-0.010593 0.006220 0
-0.011951 0.006079 0
-0.013245 0.005915 0
-0.014465 0.005734 0
-0.015602 0.005537 0
-0.016650 0.005329 0
-0.017604 0.005109 0
-0.018458 0.004880 0
-0.019208 0.004643 0
-0.019851 0.004398 0
-0.020384 0.004147 0
-0.020804 0.003890 0
-0.021109 0.003629 0
-0.021297 0.003366 0
-0.021369 0.003101 0
-0.021322 0.002836 0
-0.021159 0.002574 0
-0.020881 0.002316 0
-0.020491 0.002066 0
-0.019992 0.001827 0
-0.019390 0.001603 0
-0.018691 0.001397 0
-0.017905 0.001215 0
-0.017041 0.001063 0
-0.016112 0.000946 0
-0.015133 0.000873 0
-0.014120 0.000851 0
-0.013091 0.000888 0
-0.012066 0.000993 0
-0.011064 0.001174 0
-0.010101 0.001430 0
-0.009187 0.001754 0
-0.008319 0.002114 0
-0.007478 0.002433 0
-0.006630 0.002559 0
-0.005751 0.002223 0
-0.004904 0.001038 0
0.000000 0.000000 0
0.000000 -0.000000 0
0.001622 0.002033 0
0.001681 0.003760 0
0.001383 0.005140 0
0.000732 0.006209 0
-0.000229 0.007016 0
-0.001439 0.007608 0
-0.002838 0.008021 0
-0.004372 0.008286 0
-0.005991 0.008429 0
-0.007656 0.008472 0
-0.009333 0.008432 0
-0.010993 0.008325 0
-0.012614 0.008165 0
-0.014177 0.007962 0
-0.015669 0.007724 0
-0.017075 0.007459 0
-0.018388 0.007170 0
-0.019598 0.006861 0
-0.020699 0.006536 0
-0.021684 0.006197 0
-0.022549 0.005845 0
-0.023290 0.005482 0
-0.023903 0.005109 0
-0.024385 0.004729 0
-0.024734 0.004343 0
-0.024947 0.003952 0
-0.025024 0.003559 0
-0.024965 0.003167 0
-0.024770 0.002779 0
-0.024442 0.002398 0
-0.023982 0.002028 0
-0.023396 0.001673 0
-0.022690 0.001340 0
-0.021869 0.001034 0
-0.020944 0.000761 0
-0.019926 0.000529 0
-0.018827 0.000347 0
-0.017663 0.000224 0
-0.016449 0.000170 0
-0.015205 0.000194 0
-0.013948 0.000304 0
-0.012695 0.000505 0
-0.011461 0.000794 0
-0.010256 0.001153 0
-0.009080 0.001539 0
-0.007930 0.001869 0
-0.006803 0.002001 0
-0.005729 0.001725 0
-0.004820 0.000789 0
0.000000 0.000000 0
0.000000 -0.000001 0
0.001557 0.002321 0
0.001504 0.004385 0
0.001087 0.006119 0
0.000318 0.007520 0
-0.000763 0.008611 0
-0.002103 0.009430 0
-0.003646 0.010013 0
-0.005334 0.010396 0
-0.007118 0.010610 0
-0.008955 0.010684 0
-0.010807 0.010643 0
-0.012644 0.010509 0
-0.014440 0.010299 0
-0.016174 0.010028 0
-0.017830 0.009708 0
-0.019392 0.009348 0
-0.020851 0.008955 0
-0.022196 0.008534 0
-0.023419 0.008090 0
-0.024515 0.007626 0
-0.025476 0.007144 0
-0.026298 0.006647 0
-0.026978 0.006136 0
-0.027511 0.005615 0
-0.027895 0.005086 0
-0.028127 0.004551 0
-0.028208 0.004013 0
-0.028135 0.003477 0
-0.027911 0.002945 0
-0.027536 0.002423 0
-0.027014 0.001916 0
-0.026350 0.001429 0
-0.025548 0.000970 0
-0.024617 0.000547 0
-0.023565 0.000167 0
-0.022405 -0.000160 0
-0.021149 -0.000422 0
-0.019811 -0.000610 0
-0.018409 -0.000713 0
-0.016960 -0.000719 0
-0.015482 -0.000622 0
-0.013993 -0.000418 0
-0.012508 -0.000114 0
-0.011040 0.000268 0
-0.009602 0.000682 0
-0.008206 0.001050 0
-0.006881 0.001253 0
-0.005687 0.001134 0
-0.004749 0.000530 0
0.000000 0.000000 0
0.000000 -0.000001 0
0.001508 0.002691 0
0.001353 0.005125 0
0.000816 0.007221 0
-0.000076 0.008954 0
-0.001283 0.010333 0
-0.002752 0.011385 0
-0.004428 0.012146 0
-0.006256 0.012654 0
-0.008185 0.012945 0
-0.010170 0.013056 0
-0.012173 0.013016 0
-0.014160 0.012853 0
-0.016104 0.012590 0
-0.017982 0.012246 0
-0.019776 0.011837 0
-0.021471 0.011374 0
-0.023053 0.010868 0
-0.024512 0.010324 0
-0.025839 0.009750 0
-0.027027 0.009148 0
-0.028069 0.008523 0
-0.028961 0.007879 0
-0.029696 0.007217 0
-0.030272 0.006541 0
-0.030685 0.005854 0
-0.030933 0.005159 0
-0.031014 0.004462 0
-0.030929 0.003765 0
-0.030677 0.003075 0
-0.030259 0.002396 0
-0.029680 0.001736 0
-0.028943 0.001102 0
-0.028053 0.000502 0
-0.027020 -0.000054 0
-0.025850 -0.000556 0
-0.024557 -0.000993 0
-0.023153 -0.001352 0
-0.021652 -0.001620 0
-0.020072 -0.001786 0
-0.018430 -0.001839 0
-0.016745 -0.001769 0
-0.015037 -0.001575 0
-0.013325 -0.001264 0
-0.011630 -0.000859 0
-0.009975 -0.000401 0
-0.008389 0.000043 0
-0.006922 0.000377 0
-0.005652 0.000488 0
-0.004698 0.000266 0
0.000000 0.000000 0
0.000000 -0.000001 0
0.001469 0.003131 0
0.001226 0.005971 0
0.000576 0.008443 0
-0.000439 0.010513 0
-0.001771 0.012182 0
-0.003368 0.013470 0
-0.005172 0.014411 0
-0.007131 0.015047 0
-0.009192 0.015419 0
-0.011311 0.015567 0
-0.013446 0.015528 0
-0.015565 0.015335 0
-0.017638 0.015016 0
-0.019642 0.014595 0
-0.021556 0.014091 0
-0.023364 0.013519 0
-0.025052 0.012890 0
-0.026610 0.012215 0
-0.028027 0.011500 0
-0.029295 0.010751 0
-0.030408 0.009972 0
-0.031359 0.009168 0
-0.032143 0.008342 0
-0.032756 0.007499 0
-0.033194 0.006642 0
-0.033455 0.005775 0
-0.033536 0.004904 0
-0.033438 0.004033 0
-0.033159 0.003170 0
-0.032702 0.002321 0
-0.032069 0.001494 0
-0.031264 0.000697 0
-0.030292 -0.000058 0
-0.029161 -0.000762 0
-0.027880 -0.001401 0
-0.026460 -0.001963 0
-0.024915 -0.002433 0
-0.023259 -0.002797 0
-0.021509 -0.003040 0
-0.019685 -0.003151 0
-0.017808 -0.003120 0
-0.015900 -0.002943 0
-0.013987 -0.002626 0
-0.012096 -0.002188 0
-0.010261 -0.001664 0
-0.008527 -0.001107 0
-0.006955 -0.000590 0
-0.005630 -0.000195 0
-0.004666 -0.000001 0
0.000000 0.000000 0
0.000000 -0.000001 0
0.001437 0.003628 0
0.001117 0.006912 0
0.000364 0.009780 0
-0.000769 0.012196 0
-0.002225 0.014156 0
-0.003947 0.015681 0
-0.005878 0.016804 0
-0.007962 0.017568 0
-0.010148 0.018020 0
-0.012391 0.018205 0
-0.014648 0.018165 0
-0.016887 0.017940 0
-0.019076 0.017561 0
-0.021192 0.017059 0
-0.023213 0.016454 0
-0.025123 0.015766 0
-0.026906 0.015009 0
-0.028552 0.014194 0
-0.030049 0.013330 0
-0.031389 0.012424 0
-0.032564 0.011482 0
-0.033569 0.010508 0
-0.034397 0.009508 0
-0.035043 0.008486 0
-0.035504 0.007448 0
-0.035777 0.006397 0
-0.035859 0.005340 0
-0.035748 0.004283 0
-0.035445 0.003234 0
-0.034951 0.002200 0
-0.034267 0.001192 0
-0.033397 0.000220 0
-0.032346 -0.000706 0
-0.031122 -0.001571 0
-0.029734 -0.002362 0
-0.028192 -0.003064 0
-0.026510 -0.003659 0
-0.024704 -0.004132 0
-0.022792 -0.004465 0
-0.020796 -0.004645 0
-0.018738 -0.004659 0
-0.016647 -0.004501 0
-0.014552 -0.004174 0
-0.012489 -0.003690 0
-0.010503 -0.003074 0
-0.008647 -0.002368 0
-0.006992 -0.001625 0
-0.005623 -0.000906 0
-0.004648 -0.000271 0
0.000000 0.000000 0
0.000000 -0.000001 0
0.001410 0.004176 0
0.001022 0.007939 0
0.000172 0.011224 0
-0.001072 0.013997 0
-0.002649 0.016254 0
-0.004495 0.018017 0
-0.006550 0.019321 0
-0.008758 0.020212 0
-0.011066 0.020742 0
-0.013428 0.020962 0
-0.015802 0.020919 0
-0.018153 0.020658 0
-0.020452 0.020216 0
-0.022672 0.019627 0
-0.024793 0.018916 0
-0.026796 0.018106 0
-0.028668 0.017214 0
-0.030394 0.016252 0
-0.031966 0.015232 0
-0.033373 0.014161 0
-0.034607 0.013047 0
-0.035662 0.011895 0
-0.036531 0.010711 0
-0.037209 0.009501 0
-0.037693 0.008270 0
-0.037977 0.007024 0
-0.038060 0.005770 0
-0.037939 0.004515 0
-0.037613 0.003267 0
-0.037084 0.002037 0
-0.036352 0.000834 0
-0.035420 -0.000328 0
-0.034293 -0.001438 0
-0.032979 -0.002480 0
-0.031485 -0.003437 0
-0.029824 -0.004292 0
-0.028009 -0.005026 0
-0.026056 -0.005620 0
-0.023987 -0.006054 0
-0.021825 -0.006310 0
-0.019595 -0.006374 0
-0.017331 -0.006235 0
-0.015068 -0.005889 0
-0.012851 -0.005342 0
-0.010730 -0.004611 0
-0.008768 -0.003724 0
-0.007038 -0.002719 0
-0.005630 -0.001644 0
-0.004642 -0.000545 0
0.000000 0.000000 0
0.000000 -0.000001 0
0.001386 0.004768 0
0.000936 0.009044 0
-0.000003 0.012768 0
-0.001356 0.015912 0
-0.003051 0.018474 0
-0.005020 0.020477 0
-0.007200 0.021961 0
-0.009532 0.022979 0
-0.011961 0.023584 0
-0.014442 0.023835 0
-0.016931 0.023786 0
-0.019393 0.023484 0
-0.021797 0.022975 0
-0.024119 0.022294 0
-0.026336 0.021473 0
-0.028429 0.020535 0
-0.030385 0.019501 0
-0.032190 0.018386 0
-0.033833 0.017202 0
-0.035305 0.015959 0
-0.036596 0.014665 0
-0.037700 0.013327 0
-0.038611 0.011951 0
-0.039322 0.010543 0
-0.039828 0.009110 0
-0.040126 0.007658 0
-0.040211 0.006196 0
-0.040082 0.004731 0
-0.039736 0.003273 0
-0.039174 0.001833 0
-0.038396 0.000423 0
-0.037404 -0.000944 0
-0.036203 -0.002252 0
-0.034799 -0.003485 0
-0.033202 -0.004623 0
-0.031422 -0.005645 0
-0.029475 -0.006531 0
-0.027378 -0.007258 0
-0.025153 -0.007802 0
-0.022827 -0.008142 0
-0.020430 -0.008258 0
-0.017999 -0.008134 0
-0.015576 -0.007760 0
-0.013212 -0.007134 0
-0.010964 -0.006263 0
-0.008900 -0.005165 0
-0.007100 -0.003868 0
-0.005650 -0.002408 0
-0.004646 -0.000826 0
0.000000 0.000000 0
0.000000 -0.000001 0
0.001364 0.005402 0
0.000856 0.010223 0
-0.000170 0.014410 0
-0.001628 0.017939 0
-0.003441 0.020813 0
-0.005534 0.023061 0
-0.007840 0.024727 0
-0.010298 0.025868 0
-0.012852 0.026547 0
-0.015452 0.026826 0
-0.018058 0.026765 0
-0.020632 0.026419 0
-0.023143 0.025837 0
-0.025566 0.025060 0
-0.027878 0.024122 0
-0.030062 0.023051 0
-0.032103 0.021869 0
-0.033986 0.020595 0
-0.035700 0.019241 0
-0.037237 0.017819 0
-0.038586 0.016337 0
-0.039741 0.014804 0
-0.040694 0.013228 0
-0.041440 0.011613 0
-0.041972 0.009969 0
-0.042285 0.008302 0
-0.042377 0.006621 0
-0.042242 0.004935 0
-0.041879 0.003254 0
-0.041286 0.001591 0
-0.040464 -0.000041 0
-0.039414 -0.001626 0
-0.038140 -0.003148 0
-0.036649 -0.004586 0
-0.034947 -0.005919 0
-0.033049 -0.007124 0
-0.030968 -0.008176 0
-0.028724 -0.009047 0
-0.026343 -0.009710 0
-0.023852 -0.010139 0
-0.021287 -0.010307 0
-0.018689 -0.010194 0
-0.016106 -0.009782 0
-0.013595 -0.009060 0
-0.011220 -0.008028 0
-0.009055 -0.006693 0
-0.007179 -0.005075 0
-0.005683 -0.003203 0
-0.004659 -0.001115 0
0.000000 0.000000 0
0.000000 -0.000001 0
0.001343 0.006075 0
0.000778 0.011473 0
-0.000332 0.016147 0
-0.001896 0.020078 0
-0.003827 0.023274 0
-0.006047 0.025771 0
-0.008484 0.027620 0
-0.011072 0.028885 0
-0.013754 0.029634 0
-0.016480 0.029936 0
-0.019206 0.029860 0
-0.021895 0.029464 0
-0.024517 0.028804 0
-0.027044 0.027924 0
-0.029455 0.026864 0
-0.031731 0.025654 0
-0.033858 0.024319 0
-0.035821 0.022879 0
-0.037610 0.021348 0
-0.039214 0.019740 0
-0.040624 0.018064 0
-0.041833 0.016330 0
-0.042832 0.014544 0
-0.043616 0.012715 0
-0.044177 0.010850 0
-0.044510 0.008958 0
-0.044611 0.007047 0
-0.044475 0.005128 0
-0.044098 0.003212 0
-0.043478 0.001313 0
-0.042615 -0.000554 0
-0.041509 -0.002373 0
-0.040163 -0.004123 0
-0.038583 -0.005783 0
-0.036777 -0.007328 0
-0.034757 -0.008730 0
-0.032540 -0.009961 0
-0.030147 -0.010988 0
-0.027604 -0.011780 0
-0.024943 -0.012303 0
-0.022204 -0.012526 0
-0.019434 -0.012419 0
-0.016686 -0.011958 0
-0.014022 -0.011125 0
-0.011513 -0.009909 0
-0.009238 -0.008312 0
-0.007280 -0.006345 0
-0.005730 -0.004033 0
-0.004681 -0.001415 0
0.000000 0.000000 0
0.000000 -0.000001 0
0.001322 0.006787 0
0.000700 0.012793 0
-0.000496 0.017979 0
-0.002167 0.022329 0
-0.004221 0.025859 0
-0.006572 0.028612 0
-0.009145 0.030646 0
-0.011870 0.032033 0
-0.014687 0.032850 0
-0.017544 0.033172 0
-0.020397 0.033075 0
-0.023207 0.032624 0
-0.025944 0.031880 0
-0.028581 0.030892 0
-0.031095 0.029704 0
-0.033468 0.028349 0
-0.035686 0.026854 0
-0.037733 0.025242 0
-0.039600 0.023528 0
-0.041276 0.021728 0
-0.042751 0.019851 0
-0.044018 0.017907 0
-0.045068 0.015905 0
-0.045894 0.013853 0
-0.046489 0.011758 0
-0.046848 0.009631 0
-0.046963 0.007480 0
-0.046829 0.005316 0
-0.046443 0.003152 0
-0.045800 0.001003 0
-0.044899 -0.001115 0
-0.043739 -0.003183 0
-0.042323 -0.005179 0
-0.040654 -0.007077 0
-0.038742 -0.008850 0
-0.036598 -0.010466 0
-0.034240 -0.011891 0
-0.031690 -0.013089 0
-0.028978 -0.014019 0
-0.026139 -0.014643 0
-0.023217 -0.014922 0
-0.020263 -0.014818 0
-0.017338 -0.014299 0
-0.014509 -0.013338 0
-0.011854 -0.011917 0
-0.009456 -0.010032 0
-0.007404 -0.007688 0
-0.005791 -0.004907 0
-0.004711 -0.001729 0
0.000000 0.000000 0
0.000000 -0.000001 0
0.001301 0.007537 0
0.000620 0.014186 0
-0.000665 0.019909 0
-0.002448 0.024697 0
-0.004629 0.028574 0
-0.007119 0.031590 0
-0.009835 0.033812 0
-0.012704 0.035322 0
-0.015665 0.036203 0
-0.018662 0.036541 0
-0.021649 0.036418 0
-0.024589 0.035906 0
-0.027448 0.035071 0
-0.030200 0.033970 0
-0.032824 0.032647 0
-0.035300 0.031140 0
-0.037614 0.029479 0
-0.039752 0.027688 0
-0.041703 0.025786 0
-0.043456 0.023786 0
-0.045002 0.021701 0
-0.046332 0.019541 0
-0.047438 0.017315 0
-0.048313 0.015031 0
-0.048949 0.012699 0
-0.049338 0.010326 0
-0.049473 0.007923 0
-0.049349 0.005503 0
-0.048958 0.003078 0
-0.048297 0.000664 0
-0.047362 -0.001721 0
-0.046152 -0.004055 0
-0.044666 -0.006314 0
-0.042909 -0.008469 0
-0.040889 -0.010489 0
-0.038617 -0.012337 0
-0.036112 -0.013974 0
-0.033398 -0.015356 0
-0.030506 -0.016437 0
-0.027476 -0.017170 0
-0.024356 -0.017507 0
-0.021203 -0.017404 0
-0.018084 -0.016817 0
-0.015073 -0.015714 0
-0.012254 -0.014068 0
-0.009717 -0.011867 0
-0.007556 -0.009115 0
-0.005868 -0.005833 0
-0.004749 -0.002061 0
0.000000 0.000000 0
0.000000 -0.000000 0
0.001278 0.008329 0
0.000535 0.015654 0
-0.000844 0.021941 0
-0.002744 0.027188 0
-0.005061 0.031425 0
-0.007697 0.034712 0
-0.010566 0.037127 0
-0.013590 0.038758 0
-0.016703 0.039702 0
-0.019850 0.040052 0
-0.022981 0.039896 0
-0.026058 0.039318 0
-0.029048 0.038386 0
-0.031925 0.037163 0
-0.034665 0.035699 0
-0.037252 0.034034 0
-0.039669 0.032200 0
-0.041903 0.030225 0
-0.043944 0.028126 0
-0.045781 0.025921 0
-0.047404 0.023622 0
-0.048804 0.021239 0
-0.049974 0.018781 0
-0.050905 0.016258 0
-0.051588 0.013678 0
-0.052015 0.011050 0
-0.052178 0.008385 0
-0.052069 0.005696 0
-0.051682 0.002996 0
-0.051009 0.000302 0
-0.050045 -0.002366 0
-0.048788 -0.004985 0
-0.047235 -0.007527 0
-0.045391 -0.009960 0
-0.043260 -0.012248 0
-0.040857 -0.014348 0
-0.038197 -0.016216 0
-0.035309 -0.017800 0
-0.032224 -0.019046 0
-0.028988 -0.019899 0
-0.025651 -0.020300 0
-0.022279 -0.020195 0
-0.018944 -0.019534 0
-0.015729 -0.018272 0
-0.012724 -0.016379 0
-0.010026 -0.013835 0
-0.007739 -0.010642 0
-0.005962 -0.006819 0
-0.004798 -0.002413 0
0.000000 0.000000 0
0.000000 -0.000000 0
0.001253 0.009165 0
0.000444 0.017202 0
-0.001034 0.024083 0
-0.003061 0.029809 0
-0.005523 0.034422 0
-0.008317 0.037989 0
-0.011349 0.040599 0
-0.014538 0.042354 0
-0.017816 0.043357 0
-0.021123 0.043714 0
-0.024408 0.043521 0
-0.027633 0.042868 0
-0.030764 0.041833 0
-0.033773 0.040481 0
-0.036639 0.038868 0
-0.039343 0.037038 0
-0.041870 0.035025 0
-0.044209 0.032858 0
-0.046347 0.030558 0
-0.048274 0.028140 0
-0.049982 0.025620 0
-0.051460 0.023006 0
-0.052701 0.020310 0
-0.053695 0.017539 0
-0.054434 0.014703 0
-0.054907 0.011811 0
-0.055107 0.008873 0
-0.055023 0.005902 0
-0.054646 0.002912 0
-0.053969 -0.000078 0
-0.052984 -0.003047 0
-0.051685 -0.005970 0
-0.050070 -0.008816 0
-0.048139 -0.011549 0
-0.045898 -0.014128 0
-0.043358 -0.016505 0
-0.040538 -0.018627 0
-0.037464 -0.020434 0
-0.034172 -0.021863 0
-0.030710 -0.022848 0
-0.027136 -0.023321 0
-0.023519 -0.023216 0
-0.019941 -0.022473 0
-0.016493 -0.021039 0
-0.013275 -0.018875 0
-0.010393 -0.015957 0
-0.007957 -0.012285 0
-0.006076 -0.007879 0
-0.004856 -0.002791 0
0.000000 0.000000 0
0.000000 -0.000000 0
0.001227 0.010047 0
0.000346 0.018836 0
-0.001241 0.026341 0
-0.003404 0.032571 0
-0.006023 0.037575 0
-0.008985 0.041432 0
-0.012194 0.044243 0
-0.015562 0.046120 0
-0.019016 0.047181 0
-0.022495 0.047539 0
-0.025947 0.047302 0
-0.029330 0.046568 0
-0.032610 0.045420 0
-0.035761 0.043933 0
-0.038761 0.042163 0
-0.041591 0.040160 0
-0.044237 0.037961 0
-0.046687 0.035596 0
-0.048929 0.033086 0
-0.050955 0.030451 0
-0.052755 0.027702 0
-0.054319 0.024853 0
-0.055639 0.021911 0
-0.056706 0.018885 0
-0.057509 0.015784 0
-0.058039 0.012618 0